
5000 atoms
15 atom types
   0.0000000000   40.0654600000 xlo xhi
   0.0000000000   40.0654600000 ylo yhi
   0.0000000000   40.0654600000 zlo zhi
   0.0000000000    0.0000000000    0.0000000000 xy xz yz

Atoms # atomic

     1      6    0.2000000000    0.2000000000   32.2523680000
     2      6    0.2000000000    4.2065460000    0.2000000000
     3      6    0.2000000000    4.2065460000   12.2196380000
     4      6    0.2000000000    4.2065460000   16.2261840000
     5      6    0.2000000000    4.2065460000   24.2392760000
     6      6    0.2000000000    4.2065460000   36.2589140000
     7      6    0.2000000000    8.2130920000    0.2000000000
     8      6    0.2000000000    8.2130920000    8.2130920000
     9      6    0.2000000000   12.2196380000   16.2261840000
    10      6    0.2000000000   12.2196380000   28.2458220000
    11      6    0.2000000000   12.2196380000   32.2523680000
    12      6    0.2000000000   16.2261840000   20.2327300000
    13      6    0.2000000000   16.2261840000   24.2392760000
    14      6    0.2000000000   16.2261840000   28.2458220000
    15      6    0.2000000000   16.2261840000   36.2589140000
    16      6    0.2000000000   20.2327300000   16.2261840000
    17      6    0.2000000000   20.2327300000   24.2392760000
    18      6    0.2000000000   20.2327300000   32.2523680000
    19      6    0.2000000000   24.2392760000    4.2065460000
    20      6    0.2000000000   24.2392760000    8.2130920000
    21      6    0.2000000000   24.2392760000   12.2196380000
    22      6    0.2000000000   24.2392760000   16.2261840000
    23      6    0.2000000000   24.2392760000   20.2327300000
    24      6    0.2000000000   24.2392760000   32.2523680000
    25      6    0.2000000000   24.2392760000   36.2589140000
    26      6    0.2000000000   28.2458220000    0.2000000000
    27      6    0.2000000000   28.2458220000   20.2327300000
    28      6    0.2000000000   28.2458220000   28.2458220000
    29      6    0.2000000000   28.2458220000   36.2589140000
    30      6    0.2000000000   32.2523680000    8.2130920000
    31      6    0.2000000000   32.2523680000   16.2261840000
    32      6    0.2000000000   32.2523680000   24.2392760000
    33      6    0.2000000000   32.2523680000   28.2458220000
    34      6    0.2000000000   36.2589140000    4.2065460000
    35      6    0.2000000000   36.2589140000    8.2130920000
    36      6    0.2000000000   36.2589140000   16.2261840000
    37      6    0.2000000000   36.2589140000   32.2523680000
    38      6    4.2065460000    0.2000000000   16.2261840000
    39      6    4.2065460000    0.2000000000   24.2392760000
    40      6    4.2065460000    0.2000000000   28.2458220000
    41      6    4.2065460000    0.2000000000   32.2523680000
    42      6    4.2065460000    0.2000000000   36.2589140000
    43      6    4.2065460000    4.2065460000    0.2000000000
    44      6    4.2065460000    4.2065460000    4.2065460000
    45      6    4.2065460000    4.2065460000    8.2130920000
    46      6    4.2065460000    4.2065460000   16.2261840000
    47      6    4.2065460000    4.2065460000   20.2327300000
    48      6    4.2065460000    4.2065460000   24.2392760000
    49      6    4.2065460000    4.2065460000   32.2523680000
    50      6    4.2065460000    4.2065460000   36.2589140000
    51      6    4.2065460000    8.2130920000    8.2130920000
    52      6    4.2065460000    8.2130920000   16.2261840000
    53      6    4.2065460000    8.2130920000   20.2327300000
    54      6    4.2065460000    8.2130920000   24.2392760000
    55      6    4.2065460000    8.2130920000   32.2523680000
    56      6    4.2065460000   12.2196380000    0.2000000000
    57      6    4.2065460000   12.2196380000    8.2130920000
    58      6    4.2065460000   12.2196380000   12.2196380000
    59      6    4.2065460000   12.2196380000   16.2261840000
    60      6    4.2065460000   12.2196380000   24.2392760000
    61      6    4.2065460000   12.2196380000   28.2458220000
    62      6    4.2065460000   12.2196380000   36.2589140000
    63      6    4.2065460000   16.2261840000   12.2196380000
    64      6    4.2065460000   16.2261840000   24.2392760000
    65      6    4.2065460000   16.2261840000   36.2589140000
    66      6    4.2065460000   20.2327300000    4.2065460000
    67      6    4.2065460000   20.2327300000    8.2130920000
    68      6    4.2065460000   20.2327300000   24.2392760000
    69      6    4.2065460000   20.2327300000   32.2523680000
    70      6    4.2065460000   20.2327300000   36.2589140000
    71      6    4.2065460000   24.2392760000    4.2065460000
    72      6    4.2065460000   24.2392760000    8.2130920000
    73      6    4.2065460000   24.2392760000   28.2458220000
    74      6    4.2065460000   24.2392760000   32.2523680000
    75      6    4.2065460000   24.2392760000   36.2589140000
    76      6    4.2065460000   28.2458220000    0.2000000000
    77      6    4.2065460000   28.2458220000    4.2065460000
    78      6    4.2065460000   28.2458220000   12.2196380000
    79      6    4.2065460000   28.2458220000   16.2261840000
    80      6    4.2065460000   28.2458220000   20.2327300000
    81      6    4.2065460000   28.2458220000   28.2458220000
    82      6    4.2065460000   32.2523680000    0.2000000000
    83      6    4.2065460000   32.2523680000    4.2065460000
    84      6    4.2065460000   32.2523680000   12.2196380000
    85      6    4.2065460000   32.2523680000   16.2261840000
    86      6    4.2065460000   32.2523680000   20.2327300000
    87      6    4.2065460000   32.2523680000   28.2458220000
    88      6    4.2065460000   32.2523680000   32.2523680000
    89      6    4.2065460000   36.2589140000    4.2065460000
    90      6    4.2065460000   36.2589140000    8.2130920000
    91      6    4.2065460000   36.2589140000   12.2196380000
    92      6    4.2065460000   36.2589140000   16.2261840000
    93      6    4.2065460000   36.2589140000   20.2327300000
    94      6    4.2065460000   36.2589140000   24.2392760000
    95      6    4.2065460000   36.2589140000   28.2458220000
    96      6    4.2065460000   36.2589140000   32.2523680000
    97      6    4.2065460000   36.2589140000   36.2589140000
    98      6    8.2130920000    0.2000000000    0.2000000000
    99      6    8.2130920000    0.2000000000    4.2065460000
   100      6    8.2130920000    0.2000000000   20.2327300000
   101      6    8.2130920000    0.2000000000   28.2458220000
   102      6    8.2130920000    0.2000000000   32.2523680000
   103      6    8.2130920000    4.2065460000    4.2065460000
   104      6    8.2130920000    4.2065460000    8.2130920000
   105      6    8.2130920000    4.2065460000   16.2261840000
   106      6    8.2130920000    4.2065460000   24.2392760000
   107      6    8.2130920000    8.2130920000   16.2261840000
   108      6    8.2130920000    8.2130920000   20.2327300000
   109      6    8.2130920000    8.2130920000   24.2392760000
   110      6    8.2130920000    8.2130920000   28.2458220000
   111      6    8.2130920000    8.2130920000   36.2589140000
   112      6    8.2130920000   12.2196380000    0.2000000000
   113      6    8.2130920000   16.2261840000    0.2000000000
   114      6    8.2130920000   16.2261840000    4.2065460000
   115      6    8.2130920000   16.2261840000    8.2130920000
   116      6    8.2130920000   16.2261840000   20.2327300000
   117      6    8.2130920000   16.2261840000   32.2523680000
   118      6    8.2130920000   16.2261840000   36.2589140000
   119      6    8.2130920000   20.2327300000   12.2196380000
   120      6    8.2130920000   20.2327300000   20.2327300000
   121      6    8.2130920000   20.2327300000   32.2523680000
   122      6    8.2130920000   20.2327300000   36.2589140000
   123      6    8.2130920000   24.2392760000    0.2000000000
   124      6    8.2130920000   24.2392760000    8.2130920000
   125      6    8.2130920000   24.2392760000   20.2327300000
   126      6    8.2130920000   24.2392760000   36.2589140000
   127      6    8.2130920000   28.2458220000    0.2000000000
   128      6    8.2130920000   28.2458220000    8.2130920000
   129      6    8.2130920000   28.2458220000   12.2196380000
   130      6    8.2130920000   28.2458220000   20.2327300000
   131      6    8.2130920000   28.2458220000   24.2392760000
   132      6    8.2130920000   28.2458220000   36.2589140000
   133      6    8.2130920000   32.2523680000    4.2065460000
   134      6    8.2130920000   32.2523680000   12.2196380000
   135      6    8.2130920000   32.2523680000   16.2261840000
   136      6    8.2130920000   32.2523680000   28.2458220000
   137      6    8.2130920000   32.2523680000   36.2589140000
   138      6    8.2130920000   36.2589140000    0.2000000000
   139      6    8.2130920000   36.2589140000    8.2130920000
   140      6    8.2130920000   36.2589140000   20.2327300000
   141      6    8.2130920000   36.2589140000   24.2392760000
   142      6    8.2130920000   36.2589140000   32.2523680000
   143      6    8.2130920000   36.2589140000   36.2589140000
   144      6   12.2196380000    0.2000000000    0.2000000000
   145      6   12.2196380000    0.2000000000   32.2523680000
   146      6   12.2196380000    0.2000000000   36.2589140000
   147      6   12.2196380000    4.2065460000    0.2000000000
   148      6   12.2196380000    4.2065460000   20.2327300000
   149      6   12.2196380000    4.2065460000   32.2523680000
   150      6   12.2196380000    8.2130920000    0.2000000000
   151      6   12.2196380000    8.2130920000   16.2261840000
   152      6   12.2196380000    8.2130920000   32.2523680000
   153      6   12.2196380000   12.2196380000    8.2130920000
   154      6   12.2196380000   12.2196380000   24.2392760000
   155      6   12.2196380000   16.2261840000    4.2065460000
   156      6   12.2196380000   16.2261840000   12.2196380000
   157      6   12.2196380000   16.2261840000   20.2327300000
   158      6   12.2196380000   16.2261840000   24.2392760000
   159      6   12.2196380000   16.2261840000   32.2523680000
   160      6   12.2196380000   20.2327300000    0.2000000000
   161      6   12.2196380000   20.2327300000    8.2130920000
   162      6   12.2196380000   20.2327300000   12.2196380000
   163      6   12.2196380000   20.2327300000   20.2327300000
   164      6   12.2196380000   24.2392760000    4.2065460000
   165      6   12.2196380000   24.2392760000    8.2130920000
   166      6   12.2196380000   24.2392760000   12.2196380000
   167      6   12.2196380000   24.2392760000   28.2458220000
   168      6   12.2196380000   28.2458220000    4.2065460000
   169      6   12.2196380000   28.2458220000   24.2392760000
   170      6   12.2196380000   28.2458220000   28.2458220000
   171      6   12.2196380000   28.2458220000   32.2523680000
   172      6   12.2196380000   28.2458220000   36.2589140000
   173      6   12.2196380000   32.2523680000    0.2000000000
   174      6   12.2196380000   32.2523680000    4.2065460000
   175      6   12.2196380000   32.2523680000    8.2130920000
   176      6   12.2196380000   32.2523680000   24.2392760000
   177      6   12.2196380000   32.2523680000   32.2523680000
   178      6   12.2196380000   36.2589140000    4.2065460000
   179      6   12.2196380000   36.2589140000    8.2130920000
   180      6   12.2196380000   36.2589140000   24.2392760000
   181      6   12.2196380000   36.2589140000   28.2458220000
   182      6   16.2261840000    0.2000000000    0.2000000000
   183      6   16.2261840000    0.2000000000    4.2065460000
   184      6   16.2261840000    0.2000000000    8.2130920000
   185      6   16.2261840000    0.2000000000   12.2196380000
   186      6   16.2261840000    0.2000000000   20.2327300000
   187      6   16.2261840000    0.2000000000   24.2392760000
   188      6   16.2261840000    0.2000000000   28.2458220000
   189      6   16.2261840000    0.2000000000   32.2523680000
   190      6   16.2261840000    4.2065460000    0.2000000000
   191      6   16.2261840000    4.2065460000    4.2065460000
   192      6   16.2261840000    4.2065460000    8.2130920000
   193      6   16.2261840000    4.2065460000   12.2196380000
   194      6   16.2261840000    8.2130920000    0.2000000000
   195      6   16.2261840000    8.2130920000    4.2065460000
   196      6   16.2261840000    8.2130920000    8.2130920000
   197      6   16.2261840000    8.2130920000   12.2196380000
   198      6   16.2261840000    8.2130920000   16.2261840000
   199      6   16.2261840000    8.2130920000   24.2392760000
   200      6   16.2261840000    8.2130920000   28.2458220000
   201      6   16.2261840000    8.2130920000   32.2523680000
   202      6   16.2261840000    8.2130920000   36.2589140000
   203      6   16.2261840000   12.2196380000    4.2065460000
   204      6   16.2261840000   12.2196380000    8.2130920000
   205      6   16.2261840000   12.2196380000   12.2196380000
   206      6   16.2261840000   12.2196380000   16.2261840000
   207      6   16.2261840000   12.2196380000   20.2327300000
   208      6   16.2261840000   12.2196380000   28.2458220000
   209      6   16.2261840000   16.2261840000    0.2000000000
   210      6   16.2261840000   16.2261840000   16.2261840000
   211      6   16.2261840000   16.2261840000   28.2458220000
   212      6   16.2261840000   20.2327300000    0.2000000000
   213      6   16.2261840000   20.2327300000    8.2130920000
   214      6   16.2261840000   20.2327300000   16.2261840000
   215      6   16.2261840000   20.2327300000   20.2327300000
   216      6   16.2261840000   20.2327300000   24.2392760000
   217      6   16.2261840000   20.2327300000   28.2458220000
   218      6   16.2261840000   24.2392760000    4.2065460000
   219      6   16.2261840000   24.2392760000    8.2130920000
   220      6   16.2261840000   24.2392760000   16.2261840000
   221      6   16.2261840000   24.2392760000   20.2327300000
   222      6   16.2261840000   24.2392760000   24.2392760000
   223      6   16.2261840000   24.2392760000   32.2523680000
   224      6   16.2261840000   28.2458220000    0.2000000000
   225      6   16.2261840000   28.2458220000   16.2261840000
   226      6   16.2261840000   28.2458220000   20.2327300000
   227      6   16.2261840000   28.2458220000   28.2458220000
   228      6   16.2261840000   28.2458220000   32.2523680000
   229      6   16.2261840000   28.2458220000   36.2589140000
   230      6   16.2261840000   32.2523680000    0.2000000000
   231      6   16.2261840000   32.2523680000    4.2065460000
   232      6   16.2261840000   32.2523680000   12.2196380000
   233      6   16.2261840000   32.2523680000   16.2261840000
   234      6   16.2261840000   32.2523680000   20.2327300000
   235      6   16.2261840000   32.2523680000   24.2392760000
   236      6   16.2261840000   32.2523680000   28.2458220000
   237      6   16.2261840000   32.2523680000   32.2523680000
   238      6   16.2261840000   32.2523680000   36.2589140000
   239      6   16.2261840000   36.2589140000    0.2000000000
   240      6   16.2261840000   36.2589140000    4.2065460000
   241      6   16.2261840000   36.2589140000   20.2327300000
   242      6   16.2261840000   36.2589140000   24.2392760000
   243      6   16.2261840000   36.2589140000   32.2523680000
   244      6   16.2261840000   36.2589140000   36.2589140000
   245      6   20.2327300000    0.2000000000    4.2065460000
   246      6   20.2327300000    0.2000000000    8.2130920000
   247      6   20.2327300000    0.2000000000   16.2261840000
   248      6   20.2327300000    0.2000000000   24.2392760000
   249      6   20.2327300000    0.2000000000   32.2523680000
   250      6   20.2327300000    4.2065460000    4.2065460000
   251      6   20.2327300000    4.2065460000   12.2196380000
   252      6   20.2327300000    4.2065460000   20.2327300000
   253      6   20.2327300000    4.2065460000   24.2392760000
   254      6   20.2327300000    4.2065460000   32.2523680000
   255      6   20.2327300000    4.2065460000   36.2589140000
   256      6   20.2327300000    8.2130920000    0.2000000000
   257      6   20.2327300000    8.2130920000   24.2392760000
   258      6   20.2327300000    8.2130920000   28.2458220000
   259      6   20.2327300000   12.2196380000    4.2065460000
   260      6   20.2327300000   12.2196380000   12.2196380000
   261      6   20.2327300000   12.2196380000   24.2392760000
   262      6   20.2327300000   16.2261840000    4.2065460000
   263      6   20.2327300000   16.2261840000   16.2261840000
   264      6   20.2327300000   16.2261840000   32.2523680000
   265      6   20.2327300000   16.2261840000   36.2589140000
   266      6   20.2327300000   20.2327300000    4.2065460000
   267      6   20.2327300000   20.2327300000    8.2130920000
   268      6   20.2327300000   20.2327300000   12.2196380000
   269      6   20.2327300000   20.2327300000   32.2523680000
   270      6   20.2327300000   24.2392760000    0.2000000000
   271      6   20.2327300000   24.2392760000    4.2065460000
   272      6   20.2327300000   24.2392760000   12.2196380000
   273      6   20.2327300000   24.2392760000   16.2261840000
   274      6   20.2327300000   24.2392760000   20.2327300000
   275      6   20.2327300000   24.2392760000   24.2392760000
   276      6   20.2327300000   24.2392760000   28.2458220000
   277      6   20.2327300000   24.2392760000   32.2523680000
   278      6   20.2327300000   24.2392760000   36.2589140000
   279      6   20.2327300000   28.2458220000    0.2000000000
   280      6   20.2327300000   28.2458220000    4.2065460000
   281      6   20.2327300000   28.2458220000   12.2196380000
   282      6   20.2327300000   28.2458220000   16.2261840000
   283      6   20.2327300000   28.2458220000   20.2327300000
   284      6   20.2327300000   28.2458220000   28.2458220000
   285      6   20.2327300000   28.2458220000   32.2523680000
   286      6   20.2327300000   32.2523680000   12.2196380000
   287      6   20.2327300000   32.2523680000   20.2327300000
   288      6   20.2327300000   32.2523680000   24.2392760000
   289      6   20.2327300000   32.2523680000   36.2589140000
   290      6   20.2327300000   36.2589140000    0.2000000000
   291      6   20.2327300000   36.2589140000    4.2065460000
   292      6   20.2327300000   36.2589140000   12.2196380000
   293      6   20.2327300000   36.2589140000   20.2327300000
   294      6   20.2327300000   36.2589140000   28.2458220000
   295      6   20.2327300000   36.2589140000   32.2523680000
   296      6   20.2327300000   36.2589140000   36.2589140000
   297      6   24.2392760000    0.2000000000    0.2000000000
   298      6   24.2392760000    0.2000000000    4.2065460000
   299      6   24.2392760000    0.2000000000   16.2261840000
   300      6   24.2392760000    0.2000000000   28.2458220000
   301      6   24.2392760000    0.2000000000   32.2523680000
   302      6   24.2392760000    0.2000000000   36.2589140000
   303      6   24.2392760000    4.2065460000    0.2000000000
   304      6   24.2392760000    4.2065460000    8.2130920000
   305      6   24.2392760000    4.2065460000   24.2392760000
   306      6   24.2392760000    4.2065460000   36.2589140000
   307      6   24.2392760000    8.2130920000    0.2000000000
   308      6   24.2392760000    8.2130920000    4.2065460000
   309      6   24.2392760000    8.2130920000   12.2196380000
   310      6   24.2392760000    8.2130920000   16.2261840000
   311      6   24.2392760000    8.2130920000   24.2392760000
   312      6   24.2392760000    8.2130920000   28.2458220000
   313      6   24.2392760000    8.2130920000   32.2523680000
   314      6   24.2392760000   12.2196380000    0.2000000000
   315      6   24.2392760000   12.2196380000    4.2065460000
   316      6   24.2392760000   12.2196380000   12.2196380000
   317      6   24.2392760000   12.2196380000   16.2261840000
   318      6   24.2392760000   12.2196380000   24.2392760000
   319      6   24.2392760000   12.2196380000   28.2458220000
   320      6   24.2392760000   12.2196380000   32.2523680000
   321      6   24.2392760000   12.2196380000   36.2589140000
   322      6   24.2392760000   16.2261840000   16.2261840000
   323      6   24.2392760000   16.2261840000   28.2458220000
   324      6   24.2392760000   16.2261840000   32.2523680000
   325      6   24.2392760000   20.2327300000    4.2065460000
   326      6   24.2392760000   20.2327300000   12.2196380000
   327      6   24.2392760000   20.2327300000   20.2327300000
   328      6   24.2392760000   20.2327300000   28.2458220000
   329      6   24.2392760000   20.2327300000   32.2523680000
   330      6   24.2392760000   20.2327300000   36.2589140000
   331      6   24.2392760000   24.2392760000    8.2130920000
   332      6   24.2392760000   24.2392760000   20.2327300000
   333      6   24.2392760000   24.2392760000   24.2392760000
   334      6   24.2392760000   24.2392760000   28.2458220000
   335      6   24.2392760000   28.2458220000    0.2000000000
   336      6   24.2392760000   28.2458220000    4.2065460000
   337      6   24.2392760000   28.2458220000   20.2327300000
   338      6   24.2392760000   28.2458220000   24.2392760000
   339      6   24.2392760000   28.2458220000   32.2523680000
   340      6   24.2392760000   28.2458220000   36.2589140000
   341      6   24.2392760000   32.2523680000    4.2065460000
   342      6   24.2392760000   32.2523680000    8.2130920000
   343      6   24.2392760000   32.2523680000   12.2196380000
   344      6   24.2392760000   32.2523680000   16.2261840000
   345      6   24.2392760000   32.2523680000   36.2589140000
   346      6   24.2392760000   36.2589140000    0.2000000000
   347      6   24.2392760000   36.2589140000    8.2130920000
   348      6   24.2392760000   36.2589140000   12.2196380000
   349      6   24.2392760000   36.2589140000   16.2261840000
   350      6   24.2392760000   36.2589140000   28.2458220000
   351      6   24.2392760000   36.2589140000   36.2589140000
   352      6   28.2458220000    0.2000000000    0.2000000000
   353      6   28.2458220000    0.2000000000    8.2130920000
   354      6   28.2458220000    0.2000000000   12.2196380000
   355      6   28.2458220000    0.2000000000   20.2327300000
   356      6   28.2458220000    0.2000000000   32.2523680000
   357      6   28.2458220000    0.2000000000   36.2589140000
   358      6   28.2458220000    4.2065460000    0.2000000000
   359      6   28.2458220000    4.2065460000    4.2065460000
   360      6   28.2458220000    4.2065460000    8.2130920000
   361      6   28.2458220000    4.2065460000   20.2327300000
   362      6   28.2458220000    4.2065460000   32.2523680000
   363      6   28.2458220000    8.2130920000   24.2392760000
   364      6   28.2458220000    8.2130920000   28.2458220000
   365      6   28.2458220000    8.2130920000   32.2523680000
   366      6   28.2458220000   12.2196380000    4.2065460000
   367      6   28.2458220000   12.2196380000   16.2261840000
   368      6   28.2458220000   12.2196380000   24.2392760000
   369      6   28.2458220000   12.2196380000   28.2458220000
   370      6   28.2458220000   12.2196380000   36.2589140000
   371      6   28.2458220000   16.2261840000    0.2000000000
   372      6   28.2458220000   16.2261840000    4.2065460000
   373      6   28.2458220000   16.2261840000   16.2261840000
   374      6   28.2458220000   16.2261840000   20.2327300000
   375      6   28.2458220000   16.2261840000   32.2523680000
   376      6   28.2458220000   16.2261840000   36.2589140000
   377      6   28.2458220000   20.2327300000   16.2261840000
   378      6   28.2458220000   20.2327300000   20.2327300000
   379      6   28.2458220000   20.2327300000   24.2392760000
   380      6   28.2458220000   24.2392760000    0.2000000000
   381      6   28.2458220000   24.2392760000   16.2261840000
   382      6   28.2458220000   24.2392760000   24.2392760000
   383      6   28.2458220000   28.2458220000    4.2065460000
   384      6   28.2458220000   28.2458220000    8.2130920000
   385      6   28.2458220000   28.2458220000   12.2196380000
   386      6   28.2458220000   28.2458220000   20.2327300000
   387      6   28.2458220000   28.2458220000   36.2589140000
   388      6   28.2458220000   32.2523680000    0.2000000000
   389      6   28.2458220000   32.2523680000   16.2261840000
   390      6   28.2458220000   32.2523680000   20.2327300000
   391      6   28.2458220000   32.2523680000   24.2392760000
   392      6   28.2458220000   32.2523680000   28.2458220000
   393      6   28.2458220000   32.2523680000   32.2523680000
   394      6   28.2458220000   32.2523680000   36.2589140000
   395      6   28.2458220000   36.2589140000    0.2000000000
   396      6   28.2458220000   36.2589140000    4.2065460000
   397      6   28.2458220000   36.2589140000    8.2130920000
   398      6   28.2458220000   36.2589140000   16.2261840000
   399      6   28.2458220000   36.2589140000   24.2392760000
   400      6   28.2458220000   36.2589140000   32.2523680000
   401      6   28.2458220000   36.2589140000   36.2589140000
   402      6   32.2523680000    0.2000000000    4.2065460000
   403      6   32.2523680000    0.2000000000   12.2196380000
   404      6   32.2523680000    0.2000000000   16.2261840000
   405      6   32.2523680000    0.2000000000   20.2327300000
   406      6   32.2523680000    0.2000000000   24.2392760000
   407      6   32.2523680000    0.2000000000   32.2523680000
   408      6   32.2523680000    4.2065460000    4.2065460000
   409      6   32.2523680000    4.2065460000   12.2196380000
   410      6   32.2523680000    4.2065460000   28.2458220000
   411      6   32.2523680000    8.2130920000    0.2000000000
   412      6   32.2523680000    8.2130920000    4.2065460000
   413      6   32.2523680000    8.2130920000   12.2196380000
   414      6   32.2523680000    8.2130920000   20.2327300000
   415      6   32.2523680000    8.2130920000   36.2589140000
   416      6   32.2523680000   12.2196380000    4.2065460000
   417      6   32.2523680000   12.2196380000    8.2130920000
   418      6   32.2523680000   12.2196380000   16.2261840000
   419      6   32.2523680000   12.2196380000   24.2392760000
   420      6   32.2523680000   12.2196380000   28.2458220000
   421      6   32.2523680000   16.2261840000    0.2000000000
   422      6   32.2523680000   16.2261840000    4.2065460000
   423      6   32.2523680000   16.2261840000   12.2196380000
   424      6   32.2523680000   16.2261840000   20.2327300000
   425      6   32.2523680000   16.2261840000   32.2523680000
   426      6   32.2523680000   16.2261840000   36.2589140000
   427      6   32.2523680000   20.2327300000    0.2000000000
   428      6   32.2523680000   20.2327300000   12.2196380000
   429      6   32.2523680000   20.2327300000   32.2523680000
   430      6   32.2523680000   24.2392760000    0.2000000000
   431      6   32.2523680000   24.2392760000    8.2130920000
   432      6   32.2523680000   24.2392760000   12.2196380000
   433      6   32.2523680000   24.2392760000   16.2261840000
   434      6   32.2523680000   24.2392760000   20.2327300000
   435      6   32.2523680000   24.2392760000   28.2458220000
   436      6   32.2523680000   24.2392760000   32.2523680000
   437      6   32.2523680000   24.2392760000   36.2589140000
   438      6   32.2523680000   28.2458220000    0.2000000000
   439      6   32.2523680000   28.2458220000    4.2065460000
   440      6   32.2523680000   28.2458220000    8.2130920000
   441      6   32.2523680000   28.2458220000   16.2261840000
   442      6   32.2523680000   28.2458220000   20.2327300000
   443      6   32.2523680000   28.2458220000   28.2458220000
   444      6   32.2523680000   28.2458220000   36.2589140000
   445      6   32.2523680000   32.2523680000    0.2000000000
   446      6   32.2523680000   32.2523680000    4.2065460000
   447      6   32.2523680000   32.2523680000   12.2196380000
   448      6   32.2523680000   32.2523680000   16.2261840000
   449      6   32.2523680000   32.2523680000   36.2589140000
   450      6   32.2523680000   36.2589140000    0.2000000000
   451      6   32.2523680000   36.2589140000   16.2261840000
   452      6   32.2523680000   36.2589140000   20.2327300000
   453      6   32.2523680000   36.2589140000   28.2458220000
   454      6   32.2523680000   36.2589140000   32.2523680000
   455      6   32.2523680000   36.2589140000   36.2589140000
   456      6   36.2589140000    0.2000000000    0.2000000000
   457      6   36.2589140000    0.2000000000    8.2130920000
   458      6   36.2589140000    0.2000000000   12.2196380000
   459      6   36.2589140000    0.2000000000   16.2261840000
   460      6   36.2589140000    0.2000000000   20.2327300000
   461      6   36.2589140000    0.2000000000   36.2589140000
   462      6   36.2589140000    4.2065460000    4.2065460000
   463      6   36.2589140000    4.2065460000    8.2130920000
   464      6   36.2589140000    4.2065460000   16.2261840000
   465      6   36.2589140000    4.2065460000   36.2589140000
   466      6   36.2589140000    8.2130920000    8.2130920000
   467      6   36.2589140000    8.2130920000   12.2196380000
   468      6   36.2589140000    8.2130920000   32.2523680000
   469      6   36.2589140000    8.2130920000   36.2589140000
   470      6   36.2589140000   12.2196380000    0.2000000000
   471      6   36.2589140000   12.2196380000   12.2196380000
   472      6   36.2589140000   12.2196380000   24.2392760000
   473      6   36.2589140000   12.2196380000   32.2523680000
   474      6   36.2589140000   12.2196380000   36.2589140000
   475      6   36.2589140000   16.2261840000    4.2065460000
   476      6   36.2589140000   16.2261840000   12.2196380000
   477      6   36.2589140000   16.2261840000   36.2589140000
   478      6   36.2589140000   20.2327300000    8.2130920000
   479      6   36.2589140000   20.2327300000   12.2196380000
   480      6   36.2589140000   20.2327300000   16.2261840000