
40 atoms
15 atom types
   0.0000000000    7.9519116548 xlo xhi
   0.0000000000    7.9525920228 ylo yhi
   0.0000000000    7.9525820174 zlo zhi
   0.0000000000    0.0000000000    0.0000000000 xy xz yz

Atoms # atomic

     1      6    0.0116971731    7.9483041898    3.9870838057
     2      6    3.9804748104    7.9426805945    0.0191493160
     3      6    3.9442235811    3.9838047424    7.9478843315
     4      6    4.0056220866    3.9425813849    3.9811846863
     5      7    0.0120568897    0.0288035437    7.9332716706
     6      7    0.0008892950    3.9702496781    0.0074749415
     7      7    7.9243061688    3.9710035042    3.9786696545
     8      7    3.9956903639    0.0178775918    3.9471789337
     9     11    1.9971811655    1.9930759042    1.9898447433
    10     11    1.9798223597    1.9813896839    5.9754312621
    11     11    1.9765843406    5.9810922951    1.9875124328
    12     11    1.9839495496    5.9524206078    5.9566350924
    13     11    5.9669010862    1.9803710356    1.9791360825
    14     11    5.9717275163    1.9967008541    5.9625802441
    15     11    5.9654665396    5.9585124877    1.9730255484
    16     11    5.9691121894    5.9594961923    5.9787767169
    17     15    1.9614172934    2.0393135229    0.0014227355
    18     15    7.9326139964    1.9925358639    2.0016019424
    19     15    1.9834457420    0.0054899990    1.9676056194
    20     15    1.9996289833    2.0214957494    3.9457704128
    21     15    0.0072789747    1.9735142230    5.9678524457
    22     15    2.0001178019    0.0262384579    5.9541927939
    23     15    1.9524040151    5.9743622252    7.9294654671
    24     15    0.0263152203    5.9725011317    1.9861419836
    25     15    1.9672834547    3.9988156690    1.9868673451
    26     15    1.9946507955    5.9561160130    4.0055555069
    27     15    0.0009146957    5.9743062040    5.9693911065
    28     15    1.9226684761    4.0216344584    5.9433145369
    29     15    6.0025567334    1.9537849806    0.0259574356
    30     15    3.9547431255    1.9753173665    1.9603597870
    31     15    5.9452567433    7.9400964306    2.0232818358
    32     15    5.9150799887    1.9892153051    4.0156231526
    33     15    4.0061711663    1.9594652461    5.9915365357
    34     15    5.9488189082    7.9362918268    5.9427480522
    35     15    5.9952998194    5.9300273685    7.9383775138
    36     15    3.9817869019    5.9641679083    2.0028473773
    37     15    5.9668393634    3.9882714587    1.9737927960
    38     15    5.9665417466    5.9483950901    3.9643039068
    39     15    3.9903504356    5.9880010102    5.9609291827
    40     15    5.9889802275    3.9921458050    5.9967060726
