
40 atoms
15 atom types
   0.0000000000    7.8686778416 xlo xhi
   0.0000000000    7.9421274481 ylo yhi
   0.0000000000    7.8495879439 zlo zhi
   0.0506897284   -0.0360498069    0.0521097208 xy xz yz

Atoms # atomic

     1      1   -0.0060795674    0.0015658916   -0.0082014561
     2      1    0.0100274463    4.0068507323    3.9251046703
     3      1    3.9305773409   -0.0067919636   -0.0057969689
     4      1    3.9628500680    3.9752387017    0.0039456789
     5      4   -0.0204011907    0.0333737212    3.9139996298
     6      4    0.0242177702    3.9693177334    0.0079673573
     7      4    3.9194344007    0.0265144579    3.9257699667
     8      4    3.9461690574    3.9992354731    3.9260306653
     9      9    1.9688729513    2.0071775460    1.9800167916
    10      9    1.9497593537    2.0171241928    5.8720495390
    11      9    2.0003911824    5.9751372867    1.9780865019
    12      9    1.9881387480    6.0037823332    5.8920659318
    13      9    5.8984322977    2.0019573740    1.9720736341
    14      9    5.8903712409    2.0304372214    5.8716814410
    15      9    5.9234057639    5.9637651476    1.9824430786
    16      9    5.9087058426    5.9915263989    5.8752802217
    17     15    1.9643240756    2.0003911824    0.0012403934
    18     15    0.0088648525    2.0002373832    1.9887578447
    19     15    1.9614491910    0.0114023389    2.0077246431
    20     15    1.9697002468    1.9998238854    3.9222291857
    21     15   -0.0128100314    2.0270571395    5.8794983991
    22     15    1.9366001242    0.0409033808    5.8560558247
    23     15    1.9847163664    5.9375020883   -0.0010853942
    24     15    0.0136393269    5.9802645592    1.9791775961
    25     15    1.9863666575    3.9846405513    1.9824227787
    26     15    1.9946960129    5.9878050188    3.9230243814
    27     15    0.0168582097    5.9833216429    5.8712105435
    28     15    1.9619305885    4.0134985967    5.8784655047
    29     15    5.9259621502    1.9991716889    0.0006515965
    30     15    3.9504082347    2.0033955663    2.0065722493
    31     15    5.8979331003    0.0067686637    2.0024069716
    32     15    5.8819505860    1.9987236913    3.9275442572
    33     15    3.9213122906    2.0279690346    5.8471175726
    34     15    5.8756071200    0.0366593036    5.8471927722
    35     15    5.9599046683    5.9429224593    0.0005892968
    36     15    3.9525558232    5.9649270414    1.9942454153
    37     15    5.9203094805    3.9860354438    1.9669351617
    38     15    5.9218048725    5.9917892975    3.9210184922
    39     15    3.9361923109    6.0077700119    5.8460409784
    40     15    5.8969826054    4.0076616280    5.8768984130
