
40 atoms
15 atom types
   0.0000000000    7.7374185448 xlo xhi
   0.0000000000    7.7374185448 ylo yhi
   0.0000000000    8.4575046868 zlo zhi
   0.0000000000    0.0000000000    0.0000000000 xy xz yz

Atoms # atomic

     1      2    0.0000000000    0.0000000000    0.0000000000
     2      2    0.0000000000    0.0000000000    4.2287523434
     3      2    0.0000000000    3.8687092724    0.0000000000
     4      2    0.0000000000    3.8687092724    4.2287523434
     5      2    3.8687092724    0.0000000000    0.0000000000
     6      2    3.8687092724    0.0000000000    4.2287523434
     7      2    3.8687092724    3.8687092724    0.0000000000
     8      2    3.8687092724    3.8687092724    4.2287523434
     9      9    1.9343546362    1.9343546362    1.9493897075
    10      9    1.9343546362    1.9343546362    6.1781420509
    11      9    1.9343546362    5.8030639086    1.9493897075
    12      9    1.9343546362    5.8030639086    6.1781420509
    13      9    5.8030639086    1.9343546362    1.9493897075
    14      9    5.8030639086    1.9343546362    6.1781420509
    15      9    5.8030639086    5.8030639086    1.9493897075
    16      9    5.8030639086    5.8030639086    6.1781420509
    17     15    0.0000000000    1.9343546362    1.5888454370
    18     15    0.0000000000    1.9343546362    5.8175977804
    19     15    0.0000000000    5.8030639086    1.5888454370
    20     15    0.0000000000    5.8030639086    5.8175977804
    21     15    3.8687092724    1.9343546362    1.5888454370
    22     15    3.8687092724    1.9343546362    5.8175977804
    23     15    3.8687092724    5.8030639086    1.5888454370
    24     15    3.8687092724    5.8030639086    5.8175977804
    25     15    1.9343546362    0.0000000000    1.5888454370
    26     15    1.9343546362    0.0000000000    5.8175977804
    27     15    1.9343546362    3.8687092724    1.5888454370
    28     15    1.9343546362    3.8687092724    5.8175977804
    29     15    5.8030639086    0.0000000000    1.5888454370
    30     15    5.8030639086    0.0000000000    5.8175977804
    31     15    5.8030639086    3.8687092724    1.5888454370
    32     15    5.8030639086    3.8687092724    5.8175977804
    33     15    1.9343546362    1.9343546362    3.7201619906
    34     15    1.9343546362    1.9343546362    7.9489143340
    35     15    1.9343546362    5.8030639086    3.7201619906
    36     15    1.9343546362    5.8030639086    7.9489143340
    37     15    5.8030639086    1.9343546362    3.7201619906
    38     15    5.8030639086    1.9343546362    7.9489143340
    39     15    5.8030639086    5.8030639086    3.7201619906
    40     15    5.8030639086    5.8030639086    7.9489143340
