
40 atoms
15 atom types
   0.0000000000    7.7734283519 xlo xhi
   0.0000000000    7.7734283519 ylo yhi
   0.0000000000    7.8151881282 zlo zhi
   0.0000000000    0.0000000000    0.0000000000 xy xz yz

Atoms # atomic

     1      4    0.0000000000    0.0000000000    0.0000000000
     2      4    3.8867141760    0.0000000000    0.0000000000
     3      4    0.0000000000    3.8867141760    0.0000000000
     4      4    3.8867141760    3.8867141760    0.0000000000
     5      4    0.0000000000    0.0000000000    3.9075940641
     6      4    3.8867141760    0.0000000000    3.9075940641
     7      4    0.0000000000    3.8867141760    3.9075940641
     8      4    3.8867141760    3.8867141760    3.9075940641
     9      9    1.9433570880    1.9433570880    1.9537970320
    10      9    5.8300712639    1.9433570880    1.9537970320
    11      9    1.9433570880    5.8300712639    1.9537970320
    12      9    5.8300712639    5.8300712639    1.9537970320
    13      9    1.9433570880    1.9433570880    5.8613910961
    14      9    5.8300712639    1.9433570880    5.8613910961
    15      9    1.9433570880    5.8300712639    5.8613910961
    16      9    5.8300712639    5.8300712639    5.8613910961
    17     15    0.0000000000    1.7670502916    1.9537970320
    18     15    3.8867141760    2.1196638844    1.9537970320
    19     15    0.0000000000    6.0063780604    1.9537970320
    20     15    3.8867141760    5.6537644675    1.9537970320
    21     15    0.0000000000    2.1196638844    5.8613910961
    22     15    3.8867141760    1.7670502916    5.8613910961
    23     15    0.0000000000    5.6537644675    5.8613910961
    24     15    3.8867141760    6.0063780604    5.8613910961
    25     15    2.1196638844    0.0000000000    1.9537970320
    26     15    5.6537644675    0.0000000000    1.9537970320
    27     15    1.7670502916    3.8867141760    1.9537970320
    28     15    6.0063780604    3.8867141760    1.9537970320
    29     15    1.7670502916    0.0000000000    5.8613910961
    30     15    6.0063780604    0.0000000000    5.8613910961
    31     15    2.1196638844    3.8867141760    5.8613910961
    32     15    5.6537644675    3.8867141760    5.8613910961
    33     15    1.9433570880    1.9433570880    0.0000000000
    34     15    5.8300712639    1.9433570880    0.0000000000
    35     15    1.9433570880    5.8300712639    0.0000000000
    36     15    5.8300712639    5.8300712639    0.0000000000
    37     15    1.9433570880    1.9433570880    3.9075940641
    38     15    5.8300712639    1.9433570880    3.9075940641
    39     15    1.9433570880    5.8300712639    3.9075940641
    40     15    5.8300712639    5.8300712639    3.9075940641
