7.868672791516880594e+00 0.000000000000000000e+00 -0.000000000000000000e+00 5.068970821477507965e-02 7.942122350853098922e+00 0.000000000000000000e+00 -3.604979248653859825e-02 5.210970004087451396e-02 7.849582906048009789e+00
7.868860445048690089e+00 0.000000000000000000e+00 -0.000000000000000000e+00 5.068970821477507965e-02 7.942311756022824909e+00 0.000000000000000000e+00 -3.604979248653859825e-02 5.210970004087451396e-02 7.849770104320439756e+00
7.870946435120103502e+00 0.000000000000000000e+00 -0.000000000000000000e+00 5.068970821477507965e-02 7.944417217618154226e+00 0.000000000000000000e+00 -3.604979248653859825e-02 5.210970004087451396e-02 7.851851033650984135e+00
7.876613606176159799e+00 0.000000000000000000e+00 -0.000000000000000000e+00 5.068970821477507965e-02 7.950137288474704356e+00 0.000000000000000000e+00 -3.604979248653859825e-02 5.210970004087451396e-02 7.857504455801183951e+00
7.885456293667988170e+00 0.000000000000000000e+00 -0.000000000000000000e+00 5.068970821477507965e-02 7.959062517395398828e+00 0.000000000000000000e+00 -3.604979248653859825e-02 5.210970004087451396e-02 7.866325690386501535e+00
7.895478933053658110e+00 0.000000000000000000e+00 -0.000000000000000000e+00 5.068970821477507965e-02 7.969178712386534080e+00 0.000000000000000000e+00 -3.604979248653859825e-02 5.210970004087451396e-02 7.876324014232138460e+00
7.904702997416165111e+00 0.000000000000000000e+00 -0.000000000000000000e+00 5.068970821477507965e-02 7.978488878113416227e+00 0.000000000000000000e+00 -3.604979248653859825e-02 5.210970004087451396e-02 7.885525700445461084e+00
7.911585775620821437e+00 0.000000000000000000e+00 -0.000000000000000000e+00 5.068970821477507965e-02 7.985435903115248202e+00 0.000000000000000000e+00 -3.604979248653859825e-02 5.210970004087451396e-02 7.892391780606236473e+00
7.915652240422025088e+00 0.000000000000000000e+00 -0.000000000000000000e+00 5.068970821477507965e-02 7.989540326039954010e+00 0.000000000000000000e+00 -3.604979248653859825e-02 5.210970004087451396e-02 7.896448379912229143e+00
7.917780086277503848e+00 0.000000000000000000e+00 -0.000000000000000000e+00 5.068970821477507965e-02 7.991688034119099449e+00 0.000000000000000000e+00 -3.604979248653859825e-02 5.210970004087451396e-02 7.898571063482423327e+00
7.919159156400160882e+00 0.000000000000000000e+00 -0.000000000000000000e+00 5.068970821477507965e-02 7.993079977072657272e+00 0.000000000000000000e+00 -3.604979248653859825e-02 5.210970004087451396e-02 7.899946787896340084e+00
7.920148546067935946e+00 0.000000000000000000e+00 -0.000000000000000000e+00 5.068970821477507965e-02 7.994078602126270638e+00 0.000000000000000000e+00 -3.604979248653859825e-02 5.210970004087451396e-02 7.900933777242931555e+00
7.920197493041182923e+00 0.000000000000000000e+00 -0.000000000000000000e+00 5.068970821477507965e-02 7.994128005991886887e+00 0.000000000000000000e+00 -3.604979248653859825e-02 5.210970004087451396e-02 7.900982605468861664e+00
7.918820755271099188e+00 0.000000000000000000e+00 -0.000000000000000000e+00 5.068970821477507965e-02 7.992738417161779019e+00 0.000000000000000000e+00 -3.604979248653859825e-02 5.210970004087451396e-02 7.899609207748552464e+00
7.916078448948641544e+00 0.000000000000000000e+00 -0.000000000000000000e+00 5.068970821477507965e-02 7.989970512978668893e+00 0.000000000000000000e+00 -3.604979248653859825e-02 5.210970004087451396e-02 7.896873554430796638e+00
7.912627413494840667e+00 0.000000000000000000e+00 -0.000000000000000000e+00 5.068970821477507965e-02 7.986487264082298587e+00 0.000000000000000000e+00 -3.604979248653859825e-02 5.210970004087451396e-02 7.893430891401801652e+00
7.908433654826377612e+00 0.000000000000000000e+00 -0.000000000000000000e+00 5.068970821477507965e-02 7.982254359077174399e+00 0.000000000000000000e+00 -3.604979248653859825e-02 5.210970004087451396e-02 7.889247307050773372e+00
7.903652894147875863e+00 0.000000000000000000e+00 -0.000000000000000000e+00 5.068970821477507965e-02 7.977428972731551049e+00 0.000000000000000000e+00 -3.604979248653859825e-02 5.210970004087451396e-02 7.884478144792507415e+00
7.899525815121585026e+00 0.000000000000000000e+00 -0.000000000000000000e+00 5.068970821477507965e-02 7.973263369784016064e+00 0.000000000000000000e+00 -3.604979248653859825e-02 5.210970004087451396e-02 7.880361078314582102e+00
7.898138201944105319e+00 0.000000000000000000e+00 -0.000000000000000000e+00 5.068970821477507965e-02 7.971862804030093841e+00 0.000000000000000000e+00 -3.604979248653859825e-02 5.210970004087451396e-02 7.878976831571722350e+00
7.903120056002052252e+00 0.000000000000000000e+00 -0.000000000000000000e+00 5.068970821477507965e-02 7.976891160846358630e+00 0.000000000000000000e+00 -3.604979248653859825e-02 5.210970004087451396e-02 7.883946599344243467e+00
7.919496893862041809e+00 0.000000000000000000e+00 -0.000000000000000000e+00 5.068970821477507965e-02 7.993420867120391904e+00 0.000000000000000000e+00 -3.604979248653859825e-02 5.210970004087451396e-02 7.900283705985937210e+00
7.946788575453904713e+00 0.000000000000000000e+00 -0.000000000000000000e+00 5.068970821477507965e-02 8.020967300947821954e+00 0.000000000000000000e+00 -3.604979248653859825e-02 5.210970004087451396e-02 7.927509176274932123e+00
7.976647790327272780e+00 0.000000000000000000e+00 -0.000000000000000000e+00 5.068970821477507965e-02 8.051105234510801623e+00 0.000000000000000000e+00 -3.604979248653859825e-02 5.210970004087451396e-02 7.957295950851287714e+00
8.000818754070927241e+00 0.000000000000000000e+00 -0.000000000000000000e+00 5.068970821477507965e-02 8.075501820374705986e+00 0.000000000000000000e+00 -3.604979248653859825e-02 5.210970004087451396e-02 7.981408274346493137e+00
8.014843964992587999e+00 0.000000000000000000e+00 -0.000000000000000000e+00 5.068970821477507965e-02 8.089657948617769989e+00 0.000000000000000000e+00 -3.604979248653859825e-02 5.210970004087451396e-02 7.995399459242019446e+00
8.017431355792789205e+00 0.000000000000000000e+00 -0.000000000000000000e+00 5.068970821477507965e-02 8.092269491230943856e+00 0.000000000000000000e+00 -3.604979248653859825e-02 5.210970004087451396e-02 7.997980572872352312e+00
8.011371109938387747e+00 0.000000000000000000e+00 -0.000000000000000000e+00 5.068970821477507965e-02 8.086152676448170595e+00 0.000000000000000000e+00 -3.604979248653859825e-02 5.210970004087451396e-02 7.991935029548320024e+00
8.000648695336835203e+00 0.000000000000000000e+00 -0.000000000000000000e+00 5.068970821477507965e-02 8.075330174239754299e+00 0.000000000000000000e+00 -3.604979248653859825e-02 5.210970004087451396e-02 7.981238628185026940e+00
7.985369680393445968e+00 0.000000000000000000e+00 -0.000000000000000000e+00 5.068970821477507965e-02 8.059908538431333369e+00 0.000000000000000000e+00 -3.604979248653859825e-02 5.210970004087451396e-02 7.965996681074264174e+00
7.964359317328423948e+00 0.000000000000000000e+00 -0.000000000000000000e+00 5.068970821477507965e-02 8.038702055646234967e+00 0.000000000000000000e+00 -3.604979248653859825e-02 5.210970004087451396e-02 7.945037290445828404e+00
7.939361840915425184e+00 0.000000000000000000e+00 -0.000000000000000000e+00 5.068970821477507965e-02 8.013471242091394942e+00 0.000000000000000000e+00 -3.604979248653859825e-02 5.210970004087451396e-02 7.920100459452736885e+00
7.914096677354314657e+00 0.000000000000000000e+00 -0.000000000000000000e+00 5.068970821477507965e-02 7.987970242679827138e+00 0.000000000000000000e+00 -3.604979248653859825e-02 5.210970004087451396e-02 7.894896590736794728e+00
7.892621036849568839e+00 0.000000000000000000e+00 -0.000000000000000000e+00 5.068970821477507965e-02 7.966294139356004500e+00 0.000000000000000000e+00 -3.604979248653859825e-02 5.210970004087451396e-02 7.873473051460138095e+00
7.878332297958852593e+00 0.000000000000000000e+00 -0.000000000000000000e+00 5.068970821477507965e-02 7.951872023261048916e+00 0.000000000000000000e+00 -3.604979248653859825e-02 5.210970004087451396e-02 7.859218977930878758e+00
7.872921269521362397e+00 0.000000000000000000e+00 -0.000000000000000000e+00 5.068970821477507965e-02 7.946410485969301440e+00 0.000000000000000000e+00 -3.604979248653859825e-02 5.210970004087451396e-02 7.853821076982821836e+00
7.876706840792473407e+00 0.000000000000000000e+00 -0.000000000000000000e+00 5.068970821477507965e-02 7.950231393383008438e+00 0.000000000000000000e+00 -3.604979248653859825e-02 5.210970004087451396e-02 7.857597464224800099e+00
7.887873345247711221e+00 0.000000000000000000e+00 -0.000000000000000000e+00 5.068970821477507965e-02 7.961502130769249952e+00 0.000000000000000000e+00 -3.604979248653859825e-02 5.210970004087451396e-02 7.868736878050978767e+00
7.903398451338525810e+00 0.000000000000000000e+00 -0.000000000000000000e+00 5.068970821477507965e-02 7.977172154844871521e+00 0.000000000000000000e+00 -3.604979248653859825e-02 5.210970004087451396e-02 7.884224319277603144e+00
7.919360536657955585e+00 0.000000000000000000e+00 -0.000000000000000000e+00 5.068970821477507965e-02 7.993283237099631400e+00 0.000000000000000000e+00 -3.604979248653859825e-02 5.210970004087451396e-02 7.900147679592946837e+00
7.932026173685734705e+00 0.000000000000000000e+00 -0.000000000000000000e+00 5.068970821477507965e-02 8.006067100602862752e+00 0.000000000000000000e+00 -3.604979248653859825e-02 5.210970004087451396e-02 7.912782589003603206e+00
7.939680452713400172e+00 0.000000000000000000e+00 -0.000000000000000000e+00 5.068970821477507965e-02 8.013792827947250785e+00 0.000000000000000000e+00 -3.604979248653859825e-02 5.210970004087451396e-02 7.920418298279161107e+00
7.942127970206752430e+00 0.000000000000000000e+00 -0.000000000000000000e+00 5.068970821477507965e-02 8.016263191616092243e+00 0.000000000000000000e+00 -3.604979248653859825e-02 5.210970004087451396e-02 7.922859877943693618e+00
7.940000431014508031e+00 0.000000000000000000e+00 -0.000000000000000000e+00 5.068970821477507965e-02 8.014115793063165682e+00 0.000000000000000000e+00 -3.604979248653859825e-02 5.210970004087451396e-02 7.920737500292738709e+00
7.934629023838945194e+00 0.000000000000000000e+00 -0.000000000000000000e+00 5.068970821477507965e-02 8.008694246874219047e+00 0.000000000000000000e+00 -3.604979248653859825e-02 5.210970004087451396e-02 7.915379124482162965e+00
7.926488628484512411e+00 0.000000000000000000e+00 -0.000000000000000000e+00 5.068970821477507965e-02 8.000477865586182347e+00 0.000000000000000000e+00 -3.604979248653859825e-02 5.210970004087451396e-02 7.907258478230049015e+00
7.915314975549423870e+00 0.000000000000000000e+00 -0.000000000000000000e+00 5.068970821477507965e-02 7.989199912992473784e+00 0.000000000000000000e+00 -3.604979248653859825e-02 5.210970004087451396e-02 7.896111933265917315e+00
7.901268654242278977e+00 0.000000000000000000e+00 -0.000000000000000000e+00 5.068970821477507965e-02 7.975022477311063618e+00 0.000000000000000000e+00 -3.604979248653859825e-02 5.210970004087451396e-02 7.882099689200614101e+00
7.885619763953004124e+00 0.000000000000000000e+00 -0.000000000000000000e+00 5.068970821477507965e-02 7.959227513582630920e+00 0.000000000000000000e+00 -3.604979248653859825e-02 5.210970004087451396e-02 7.866488764083800156e+00
7.870229364604776734e+00 0.000000000000000000e+00 -0.000000000000000000e+00 5.068970821477507965e-02 7.943693453660357839e+00 0.000000000000000000e+00 -3.604979248653859825e-02 5.210970004087451396e-02 7.851135702793644811e+00
7.857202023004078661e+00 0.000000000000000000e+00 -0.000000000000000000e+00 5.068970821477507965e-02 7.930544509277641652e+00 0.000000000000000000e+00 -3.604979248653859825e-02 5.210970004087451396e-02 7.838139966326016506e+00
7.848733967756754915e+00 0.000000000000000000e+00 -0.000000000000000000e+00 5.068970821477507965e-02 7.921997409578320770e+00 0.000000000000000000e+00 -3.604979248653859825e-02 5.210970004087451396e-02 7.829692455103434590e+00
7.846707385507372123e+00 0.000000000000000000e+00 -0.000000000000000000e+00 5.068970821477507965e-02 7.919951910342830637e+00 0.000000000000000000e+00 -3.604979248653859825e-02 5.210970004087451396e-02 7.827670789467751966e+00
7.852191543451906952e+00 0.000000000000000000e+00 -0.000000000000000000e+00 5.068970821477507965e-02 7.925487259764692816e+00 0.000000000000000000e+00 -3.604979248653859825e-02 5.210970004087451396e-02 7.833141642506873836e+00
7.864903493417095603e+00 0.000000000000000000e+00 -0.000000000000000000e+00 5.068970821477507965e-02 7.938317868510845088e+00 0.000000000000000000e+00 -3.604979248653859825e-02 5.210970004087451396e-02 7.845822752496586006e+00
7.883177930775930875e+00 0.000000000000000000e+00 -0.000000000000000000e+00 5.068970821477507965e-02 7.956762887289761998e+00 0.000000000000000000e+00 -3.604979248653859825e-02 5.210970004087451396e-02 7.864052854944626247e+00
7.903879176544326590e+00 0.000000000000000000e+00 -0.000000000000000000e+00 5.068970821477507965e-02 7.977657367345843298e+00 0.000000000000000000e+00 -3.604979248653859825e-02 5.210970004087451396e-02 7.884703878214118333e+00
7.923387985116749022e+00 0.000000000000000000e+00 -0.000000000000000000e+00 5.068970821477507965e-02 7.997348279485023248e+00 0.000000000000000000e+00 -3.604979248653859825e-02 5.210970004087451396e-02 7.904165357212983523e+00
7.938340911371203568e+00 0.000000000000000000e+00 -0.000000000000000000e+00 5.068970821477507965e-02 8.012440782753030177e+00 0.000000000000000000e+00 -3.604979248653859825e-02 5.210970004087451396e-02 7.919082006746258173e+00
7.946241488247102858e+00 0.000000000000000000e+00 -0.000000000000000000e+00 5.068970821477507965e-02 8.020415106994418508e+00 0.000000000000000000e+00 -3.604979248653859825e-02 5.210970004087451396e-02 7.926963416335490287e+00
7.946545665853165907e+00 0.000000000000000000e+00 -0.000000000000000000e+00 5.068970821477507965e-02 8.020722123924135971e+00 0.000000000000000000e+00 -3.604979248653859825e-02 5.210970004087451396e-02 7.927266855987801009e+00
7.941217648971835352e+00 0.000000000000000000e+00 -0.000000000000000000e+00 5.068970821477507965e-02 8.015344373053089555e+00 0.000000000000000000e+00 -3.604979248653859825e-02 5.210970004087451396e-02 7.921951765204063634e+00
7.932841594810924768e+00 0.000000000000000000e+00 -0.000000000000000000e+00 5.068970821477507965e-02 8.006890133218238503e+00 0.000000000000000000e+00 -3.604979248653859825e-02 5.210970004087451396e-02 7.913596031867180969e+00
7.923128813655618607e+00 0.000000000000000000e+00 -0.000000000000000000e+00 5.068970821477507965e-02 7.997086688807817367e+00 0.000000000000000000e+00 -3.604979248653859825e-02 5.210970004087451396e-02 7.903906814518234292e+00
7.912765505922938480e+00 0.000000000000000000e+00 -0.000000000000000000e+00 5.068970821477507965e-02 7.986626645524976809e+00 0.000000000000000000e+00 -3.604979248653859825e-02 5.210970004087451396e-02 7.893568648808829025e+00
7.901660479210816490e+00 0.000000000000000000e+00 -0.000000000000000000e+00 5.068970821477507965e-02 7.975417959741547769e+00 0.000000000000000000e+00 -3.604979248653859825e-02 5.210970004087451396e-02 7.882490563576623366e+00
7.890039048770270291e+00 0.000000000000000000e+00 -0.000000000000000000e+00 5.068970821477507965e-02 7.963688049895440102e+00 0.000000000000000000e+00 -3.604979248653859825e-02 5.210970004087451396e-02 7.870897327442782476e+00
7.879282050748789068e+00 0.000000000000000000e+00 -0.000000000000000000e+00 5.068970821477507965e-02 7.952830641450953308e+00 0.000000000000000000e+00 -3.604979248653859825e-02 5.210970004087451396e-02 7.860166426562078534e+00
7.871686920900644147e+00 0.000000000000000000e+00 -0.000000000000000000e+00 5.068970821477507965e-02 7.945164615409908038e+00 0.000000000000000000e+00 -3.604979248653859825e-02 5.210970004087451396e-02 7.852589722966865970e+00
7.869903660664626877e+00 0.000000000000000000e+00 -0.000000000000000000e+00 5.068970821477507965e-02 7.943364709459708628e+00 0.000000000000000000e+00 -3.604979248653859825e-02 5.210970004087451396e-02 7.850810789030945536e+00
7.876506012310502847e+00 0.000000000000000000e+00 -0.000000000000000000e+00 5.068970821477507965e-02 7.950028690281827792e+00 0.000000000000000000e+00 -3.604979248653859825e-02 5.210970004087451396e-02 7.857397122964024483e+00
7.892223055964466383e+00 0.000000000000000000e+00 -0.000000000000000000e+00 5.068970821477507965e-02 7.965892443547287982e+00 0.000000000000000000e+00 -3.604979248653859825e-02 5.210970004087451396e-02 7.873076036101478437e+00
7.913310770876229583e+00 0.000000000000000000e+00 -0.000000000000000000e+00 5.068970821477507965e-02 7.987177000214969347e+00 0.000000000000000000e+00 -3.604979248653859825e-02 5.210970004087451396e-02 7.894112590915734806e+00
7.935682035366493636e+00 0.000000000000000000e+00 -0.000000000000000000e+00 5.068970821477507965e-02 8.009757087662185526e+00 0.000000000000000000e+00 -3.604979248653859825e-02 5.210970004087451396e-02 7.916429581339417432e+00
7.957295724014593397e+00 0.000000000000000000e+00 -0.000000000000000000e+00 5.068970821477507965e-02 8.031572527729943900e+00 0.000000000000000000e+00 -3.604979248653859825e-02 5.210970004087451396e-02 7.937990833845354643e+00
7.975681197842269476e+00 0.000000000000000000e+00 -0.000000000000000000e+00 5.068970821477507965e-02 8.050129619437734974e+00 0.000000000000000000e+00 -3.604979248653859825e-02 5.210970004087451396e-02 7.956331703379786013e+00
7.987703203071987446e+00 0.000000000000000000e+00 -0.000000000000000000e+00 5.068970821477507965e-02 8.062263843209489522e+00 0.000000000000000000e+00 -3.604979248653859825e-02 5.210970004087451396e-02 7.968324542483393280e+00
7.991230779882193325e+00 0.000000000000000000e+00 -0.000000000000000000e+00 5.068970821477507965e-02 8.065824347932151639e+00 0.000000000000000000e+00 -3.604979248653859825e-02 5.210970004087451396e-02 7.971843561174861925e+00
7.986512582953555039e+00 0.000000000000000000e+00 -0.000000000000000000e+00 5.068970821477507965e-02 8.061062109333031245e+00 0.000000000000000000e+00 -3.604979248653859825e-02 5.210970004087451396e-02 7.967136810882333720e+00
7.975503158366118228e+00 0.000000000000000000e+00 -0.000000000000000000e+00 5.068970821477507965e-02 8.049949918065150811e+00 0.000000000000000000e+00 -3.604979248653859825e-02 5.210970004087451396e-02 7.956154095838148699e+00
7.962168883736218561e+00 0.000000000000000000e+00 -0.000000000000000000e+00 5.068970821477507965e-02 8.036491175609725701e+00 0.000000000000000000e+00 -3.604979248653859825e-02 5.210970004087451396e-02 7.942852170981034909e+00
7.951512249888012640e+00 0.000000000000000000e+00 -0.000000000000000000e+00 5.068970821477507965e-02 8.025735068180118503e+00 0.000000000000000000e+00 -3.604979248653859825e-02 5.210970004087451396e-02 7.932221390784006232e+00
7.945227377588629736e+00 0.000000000000000000e+00 -0.000000000000000000e+00 5.068970821477507965e-02 8.019391530193432871e+00 0.000000000000000000e+00 -3.604979248653859825e-02 5.210970004087451396e-02 7.925951765972854446e+00
7.940403283945565605e+00 0.000000000000000000e+00 -0.000000000000000000e+00 5.068970821477507965e-02 8.014522406395578003e+00 0.000000000000000000e+00 -3.604979248653859825e-02 5.210970004087451396e-02 7.921139375877420896e+00
7.934786499740466681e+00 0.000000000000000000e+00 -0.000000000000000000e+00 5.068970821477507965e-02 8.008853192723277559e+00 0.000000000000000000e+00 -3.604979248653859825e-02 5.210970004087451396e-02 7.915536218337883234e+00
7.929899091932857580e+00 0.000000000000000000e+00 -0.000000000000000000e+00 5.068970821477507965e-02 8.003920163759277173e+00 0.000000000000000000e+00 -3.604979248653859825e-02 5.210970004087451396e-02 7.910660667683020897e+00
7.928674844990991843e+00 0.000000000000000000e+00 -0.000000000000000000e+00 5.068970821477507965e-02 8.002684489173194748e+00 0.000000000000000000e+00 -3.604979248653859825e-02 5.210970004087451396e-02 7.909439390840058870e+00
7.931399129211191834e+00 0.000000000000000000e+00 -0.000000000000000000e+00 5.068970821477507965e-02 8.005434203028013229e+00 0.000000000000000000e+00 -3.604979248653859825e-02 5.210970004087451396e-02 7.912157065778303355e+00
7.934738317621818027e+00 0.000000000000000000e+00 -0.000000000000000000e+00 5.068970821477507965e-02 8.008804560851217502e+00 0.000000000000000000e+00 -3.604979248653859825e-02 5.210970004087451396e-02 7.915488153111561509e+00
7.935652696798375594e+00 0.000000000000000000e+00 -0.000000000000000000e+00 5.068970821477507965e-02 8.009727475234644345e+00 0.000000000000000000e+00 -3.604979248653859825e-02 5.210970004087451396e-02 7.916400313947888456e+00
7.933473961657831808e+00 0.000000000000000000e+00 -0.000000000000000000e+00 5.068970821477507965e-02 8.007528402848166138e+00 0.000000000000000000e+00 -3.604979248653859825e-02 5.210970004087451396e-02 7.914226864553918439e+00
7.929034303257842531e+00 0.000000000000000000e+00 -0.000000000000000000e+00 5.068970821477507965e-02 8.003047302776730376e+00 0.000000000000000000e+00 -3.604979248653859825e-02 5.210970004087451396e-02 7.909797977038928174e+00
7.923161630886712103e+00 0.000000000000000000e+00 -0.000000000000000000e+00 5.068970821477507965e-02 7.997119812368149283e+00 0.000000000000000000e+00 -3.604979248653859825e-02 5.210970004087451396e-02 7.903939552132785984e+00
7.916069323832168436e+00 0.000000000000000000e+00 -0.000000000000000000e+00 5.068970821477507965e-02 7.989961302684685407e+00 0.000000000000000000e+00 -3.604979248653859825e-02 5.210970004087451396e-02 7.896864451452196398e+00
7.907667882124395753e+00 0.000000000000000000e+00 -0.000000000000000000e+00 5.068970821477507965e-02 7.981481438324339095e+00 0.000000000000000000e+00 -3.604979248653859825e-02 5.210970004087451396e-02 7.888483392161097285e+00
7.898724775489610828e+00 0.000000000000000000e+00 -0.000000000000000000e+00 5.068970821477507965e-02 7.972454852904082401e+00 0.000000000000000000e+00 -3.604979248653859825e-02 5.210970004087451396e-02 7.879561982053420621e+00
7.890670208835121713e+00 0.000000000000000000e+00 -0.000000000000000000e+00 5.068970821477507965e-02 7.964325101478380020e+00 0.000000000000000000e+00 -3.604979248653859825e-02 5.210970004087451396e-02 7.871526956274448317e+00
7.884115121962175898e+00 0.000000000000000000e+00 -0.000000000000000000e+00 5.068970821477507965e-02 7.957708826618651088e+00 0.000000000000000000e+00 -3.604979248653859825e-02 5.210970004087451396e-02 7.864987772445959813e+00
7.878954031216968801e+00 0.000000000000000000e+00 -0.000000000000000000e+00 5.068970821477507965e-02 7.952499560044757665e+00 0.000000000000000000e+00 -3.604979248653859825e-02 5.210970004087451396e-02 7.859839202826677251e+00
7.875308255267152724e+00 0.000000000000000000e+00 -0.000000000000000000e+00 5.068970821477507965e-02 7.948819752860836196e+00 0.000000000000000000e+00 -3.604979248653859825e-02 5.210970004087451396e-02 7.856202271752946942e+00
7.873707258514972551e+00 0.000000000000000000e+00 -0.000000000000000000e+00 5.068970821477507965e-02 7.947203811720680022e+00 0.000000000000000000e+00 -3.604979248653859825e-02 5.210970004087451396e-02 7.854605159118409397e+00
7.874562748560514081e+00 0.000000000000000000e+00 -0.000000000000000000e+00 5.068970821477507965e-02 7.948067287276254334e+00 0.000000000000000000e+00 -3.604979248653859825e-02 5.210970004087451396e-02 7.855458573691898039e+00
7.877588242656858419e+00 0.000000000000000000e+00 -0.000000000000000000e+00 5.068970821477507965e-02 7.951121022629034307e+00 0.000000000000000000e+00 -3.604979248653859825e-02 5.210970004087451396e-02 7.858476727752494284e+00
7.882162430346457249e+00 0.000000000000000000e+00 -0.000000000000000000e+00 5.068970821477507965e-02 7.955737907743852588e+00 0.000000000000000000e+00 -3.604979248653859825e-02 5.210970004087451396e-02 7.863039818180971530e+00
7.887281167944461657e+00 0.000000000000000000e+00 -0.000000000000000000e+00 5.068970821477507965e-02 7.960904425828819519e+00 0.000000000000000000e+00 -3.604979248653859825e-02 5.210970004087451396e-02 7.868146137406459850e+00
7.891569699669381599e+00 0.000000000000000000e+00 -0.000000000000000000e+00 5.068970821477507965e-02 7.965232988545309034e+00 0.000000000000000000e+00 -3.604979248653859825e-02 5.210970004087451396e-02 7.872424264889270162e+00
7.894285370427163606e+00 0.000000000000000000e+00 -0.000000000000000000e+00 5.068970821477507965e-02 7.967974008536171660e+00 0.000000000000000000e+00 -3.604979248653859825e-02 5.210970004087451396e-02 7.875133347261976446e+00
7.895578295052700035e+00 0.000000000000000000e+00 -0.000000000000000000e+00 5.068970821477507965e-02 7.969279001873237789e+00 0.000000000000000000e+00 -3.604979248653859825e-02 5.210970004087451396e-02 7.876423135172568202e+00
7.896276887319392479e+00 0.000000000000000000e+00 -0.000000000000000000e+00 5.068970821477507965e-02 7.969984115099393307e+00 0.000000000000000000e+00 -3.604979248653859825e-02 5.210970004087451396e-02 7.877120032612017653e+00
7.897317475342454429e+00 0.000000000000000000e+00 -0.000000000000000000e+00 5.068970821477507965e-02 7.971034416416542534e+00 0.000000000000000000e+00 -3.604979248653859825e-02 5.210970004087451396e-02 7.878158096103611285e+00
7.899070281090776469e+00 0.000000000000000000e+00 -0.000000000000000000e+00 5.068970821477507965e-02 7.972803583603683464e+00 0.000000000000000000e+00 -3.604979248653859825e-02 5.210970004087451396e-02 7.879906649437411481e+00
7.901282704276402669e+00 0.000000000000000000e+00 -0.000000000000000000e+00 5.068970821477507965e-02 7.975036658493432462e+00 0.000000000000000000e+00 -3.604979248653859825e-02 5.210970004087451396e-02 7.882113705146933214e+00
7.903650838981706173e+00 0.000000000000000000e+00 -0.000000000000000000e+00 5.068970821477507965e-02 7.977426898381492215e+00 0.000000000000000000e+00 -3.604979248653859825e-02 5.210970004087451396e-02 7.884476094611309271e+00
7.906425564544550255e+00 0.000000000000000000e+00 -0.000000000000000000e+00 5.068970821477507965e-02 7.980227524421244389e+00 0.000000000000000000e+00 -3.604979248653859825e-02 5.210970004087451396e-02 7.887244088519902441e+00
7.909530557604274925e+00 0.000000000000000000e+00 -0.000000000000000000e+00 5.068970821477507965e-02 7.983361500814132761e+00 0.000000000000000000e+00 -3.604979248653859825e-02 5.210970004087451396e-02 7.890341548673989180e+00
7.912718745974102852e+00 0.000000000000000000e+00 -0.000000000000000000e+00 5.068970821477507965e-02 7.986579449098653249e+00 0.000000000000000000e+00 -3.604979248653859825e-02 5.210970004087451396e-02 7.893522002302340468e+00
7.916296709636266193e+00 0.000000000000000000e+00 -0.000000000000000000e+00 5.068970821477507965e-02 7.990190811004567628e+00 0.000000000000000000e+00 -3.604979248653859825e-02 5.210970004087451396e-02 7.897091285604470379e+00
7.920616203474959427e+00 0.000000000000000000e+00 -0.000000000000000000e+00 5.068970821477507965e-02 7.994550624848166365e+00 0.000000000000000000e+00 -3.604979248653859825e-02 5.210970004087451396e-02 7.901400300085485995e+00
7.924426817849915317e+00 0.000000000000000000e+00 -0.000000000000000000e+00 5.068970821477507965e-02 7.998396809128371032e+00 0.000000000000000000e+00 -3.604979248653859825e-02 5.210970004087451396e-02 7.905201669674657872e+00
7.927517117038222594e+00 0.000000000000000000e+00 -0.000000000000000000e+00 5.068970821477507965e-02 8.001515954491630112e+00 0.000000000000000000e+00 -3.604979248653859825e-02 5.210970004087451396e-02 7.908284471606121357e+00
7.931788753520397250e+00 0.000000000000000000e+00 -0.000000000000000000e+00 5.068970821477507965e-02 8.005827464256281445e+00 0.000000000000000000e+00 -3.604979248653859825e-02 5.210970004087451396e-02 7.912545744834949879e+00
7.938103825534939872e+00 0.000000000000000000e+00 -0.000000000000000000e+00 5.068970821477507965e-02 8.012201483855506012e+00 0.000000000000000000e+00 -3.604979248653859825e-02 5.210970004087451396e-02 7.918845496094684577e+00
7.945351213658792489e+00 0.000000000000000000e+00 -0.000000000000000000e+00 5.068970821477507965e-02 8.019516522202941644e+00 0.000000000000000000e+00 -3.604979248653859825e-02 5.210970004087451396e-02 7.926075301608745960e+00
7.952290597537609251e+00 0.000000000000000000e+00 -0.000000000000000000e+00 5.068970821477507965e-02 8.026520681259894374e+00 0.000000000000000000e+00 -3.604979248653859825e-02 5.210970004087451396e-02 7.932997850114473337e+00
7.958938337188216749e+00 0.000000000000000000e+00 -0.000000000000000000e+00 5.068970821477507965e-02 8.033230473757308587e+00 0.000000000000000000e+00 -3.604979248653859825e-02 5.210970004087451396e-02 7.939629461937918187e+00
7.964686623369351182e+00 0.000000000000000000e+00 -0.000000000000000000e+00 5.068970821477507965e-02 8.039032416901575218e+00 0.000000000000000000e+00 -3.604979248653859825e-02 5.210970004087451396e-02 7.945363802422327204e+00
7.968751219011315001e+00 0.000000000000000000e+00 -0.000000000000000000e+00 5.068970821477507965e-02 8.043134953219141181e+00 0.000000000000000000e+00 -3.604979248653859825e-02 5.210970004087451396e-02 7.949418537105053417e+00
7.970315763566325096e+00 0.000000000000000000e+00 -0.000000000000000000e+00 5.068970821477507965e-02 8.044714101903085890e+00 0.000000000000000000e+00 -3.604979248653859825e-02 5.210970004087451396e-02 7.950979285978912792e+00
7.969803062531586768e+00 0.000000000000000000e+00 -0.000000000000000000e+00 5.068970821477507965e-02 8.044196615096895542e+00 0.000000000000000000e+00 -3.604979248653859825e-02 5.210970004087451396e-02 7.950467828788013946e+00
7.969051460675033560e+00 0.000000000000000000e+00 -0.000000000000000000e+00 5.068970821477507965e-02 8.043437997466728717e+00 0.000000000000000000e+00 -3.604979248653859825e-02 5.210970004087451396e-02 7.949718050363965283e+00
7.968837961293999683e+00 0.000000000000000000e+00 -0.000000000000000000e+00 5.068970821477507965e-02 8.043222505191165439e+00 0.000000000000000000e+00 -3.604979248653859825e-02 5.210970004087451396e-02 7.949505068944949571e+00
7.968319276461706124e+00 0.000000000000000000e+00 -0.000000000000000000e+00 5.068970821477507965e-02 8.042698978732742532e+00 0.000000000000000000e+00 -3.604979248653859825e-02 5.210970004087451396e-02 7.948987642474413029e+00