7.828397927431000269e+00 5.295108154400000183e-02 7.843928319317999609e+00 1.024965786499999927e-02 4.004850211083000211e+00 3.929559970152999959e+00 3.937216089785000150e+00 7.989395116816999654e+00 7.842816628592999884e+00 3.968765848538000185e+00 3.967791725397999958e+00 5.136482300999999605e-03 7.850030548262999730e+00 3.989185425700000204e-02 3.909906847442000011e+00 7.892223001017000250e+00 3.968245190685999901e+00 9.679975539999999962e-03 3.963242877842000134e+00 7.967725419667000430e+00 3.926383141800000143e+00 3.949554640988000020e+00 4.003395192515999845e+00 3.919775036874999952e+00 1.979946632779999938e+00 2.009960698655000044e+00 1.980388378483999956e+00 1.950553839055999994e+00 2.013290849162999940e+00 5.878242198384000083e+00 1.999202582704999953e+00 5.984823048814000401e+00 1.977286522115000000e+00 1.991263547693999936e+00 5.996312962088000020e+00 5.886991790557999593e+00 5.896754860567999579e+00 1.997295782959999988e+00 1.966266167536999898e+00 5.891640077173000201e+00 2.035530940976999936e+00 5.870244242906999865e+00 5.921079368374000396e+00 5.960068265023999778e+00 1.972783352785999922e+00 5.908521953183999642e+00 5.988271360538999666e+00 5.883578083449999774e+00 1.963910370939000005e+00 2.022130211808999878e+00 2.104025012000000205e-03 7.869751804776999649e+00 1.999618955607999959e+00 1.996540536434999957e+00 1.962730399497000011e+00 1.358794057999999916e-02 1.998999349798000091e+00 1.977817829191000021e+00 2.013701482844000079e+00 3.908719966976999860e+00 -9.715201029000000016e-03 2.018327247275999881e+00 5.878260707604000324e+00 1.944915191428000067e+00 5.135285830400000001e-02 5.851252796619999863e+00 1.944204334297999992e+00 5.993722442545999840e+00 7.837994811670999873e+00 7.894199132410999908e+00 5.986079392570999858e+00 1.980580070942999926e+00 1.988409380837000029e+00 3.994312238646999802e+00 1.981631716983000002e+00 2.000685463539999986e+00 5.984321263420000037e+00 3.935909059756999895e+00 1.732540188800000061e-02 5.989948973036000268e+00 5.870721784271999866e+00 1.944738223237000074e+00 4.033695641913999985e+00 5.869328122408999704e+00 5.932140559569999638e+00 1.984722098957999892e+00 1.142628522999999952e-02 3.941296646350000099e+00 2.000895565652000219e+00 1.991653973502000019e+00 5.937975388725000414e+00 7.943432616016999681e+00 2.017318977873999941e+00 5.858557633985999935e+00 1.998948508103000066e+00 3.944427145307999982e+00 3.934958871357999932e+00 2.018477513004000023e+00 5.861193268703000392e+00 5.917063289321999875e+00 7.971420208351999825e+00 5.837421960812999799e+00 5.926772662473999809e+00 5.980203146018999938e+00 7.843232122784000282e+00 3.955454101348999885e+00 5.961827340990000224e+00 1.997510784541000062e+00 5.911147307831000397e+00 3.991619244589999838e+00 1.960629950928000076e+00 5.919874486217000076e+00 5.985371178921999658e+00 3.916066594091999864e+00 3.942931464252999785e+00 6.014861114991999713e+00 5.847226844739999763e+00 5.897201700484999698e+00 4.015251544652000071e+00 5.890366268533999694e+00
5.546024969499999818e-02 7.939162611372999834e+00 6.888337383000000223e-03 1.138617323200000024e-02 3.995684564998000177e+00 3.951468189893000194e+00 3.847687902450999786e+00 5.687634149799999927e-02 7.838036967715999559e+00 3.997327821264000214e+00 3.931362878329000221e+00 1.060708492700000033e-02 -1.090457384999999994e-02 7.093748807800000222e-02 3.890403690237000056e+00 7.890065192610999922e+00 3.963818436622999819e+00 1.805026114400000090e-02 3.930537478124000117e+00 7.962938881074999919e+00 3.930190302250000212e+00 3.966028621019999978e+00 4.024770243427999716e+00 3.888995243010000102e+00 2.031350268200000198e+00 2.027365993684000056e+00 1.983862996977000082e+00 1.955812151051999903e+00 1.995578153135999955e+00 5.907486974018000048e+00 1.991210636514999965e+00 6.028412312021999675e+00 1.975749208195000106e+00 2.001768804895999843e+00 5.955969231243000372e+00 5.859915190744000135e+00 5.892915778762000123e+00 1.971741550208000016e+00 1.939835808618999957e+00 5.895271475657000160e+00 2.055389940792000214e+00 5.860253183892999651e+00 5.911536537262000124e+00 5.944240785806999661e+00 1.932702656710999944e+00 5.912307470016999744e+00 5.978725805915999558e+00 5.917652455653000132e+00 1.922670970316000094e+00 2.176457998936999871e+00 7.847487603631999598e+00 7.827590591511000007e+00 1.994929975660999943e+00 2.033306232325999829e+00 1.970321708204999966e+00 2.802582597600000031e-02 1.958067806030999947e+00 2.022192746257000184e+00 2.078844133595000088e+00 3.860707544177000017e+00 7.574798833999999911e-03 1.978078530159000037e+00 5.870357472219000172e+00 1.984467691297000069e+00 1.159173962310000028e-01 5.826245413490999780e+00 1.928158614990000075e+00 6.017904741977999628e+00 7.802586096470999877e+00 8.263970930200000009e-02 6.013502339858000312e+00 1.984945935727999933e+00 1.997974020405999918e+00 4.036061774733999741e+00 1.975023711551000094e+00 2.032421546939000123e+00 5.977894792566000426e+00 3.977529813274999881e+00 1.308064020599999933e-02 6.029611433542999777e+00 5.868841164584999603e+00 1.872794588727999976e+00 4.107958137297999635e+00 5.828649745465000365e+00 5.962883809486999809e+00 1.916912423979999947e+00 6.511931624099999427e-02 3.900871598824999786e+00 1.988848175773000104e+00 1.920456707247000017e+00 5.885282459108999831e+00 7.930019784370999858e+00 2.084780966994999929e+00 5.749653787157000373e+00 2.007165032350000100e+00 4.011211074864999837e+00 3.980610660507999832e+00 1.981180308791999911e+00 5.932961707497000248e+00 5.877363447692999898e+00 7.942297202507000442e+00 5.796683544882999861e+00 5.940170320485999689e+00 5.914851087229999749e+00 7.820222698253999738e+00 3.969357422604999908e+00 5.949790795258000031e+00 2.009660941092000108e+00 5.867909706654000246e+00 4.004703209975000178e+00 1.932774338315000007e+00 5.906977444756999596e+00 5.947125696609999679e+00 3.892154112820000122e+00 3.975164141710000099e+00 6.044377281533999557e+00 5.855387407139000189e+00 5.899849413936999909e+00 4.036436326303999955e+00 5.955267414639999757e+00
6.364968491899999914e-02 7.936526239378999925e+00 1.782753747300000122e-02 1.189188712900000021e-02 3.989818255523000179e+00 3.971830974187000152e+00 3.813255009035999787e+00 6.460699081899999585e-02 7.834286448694999905e+00 4.023361120348999620e+00 3.899427824457000202e+00 1.473405070200000007e-02 -6.770490292000000236e-03 9.764668180600000191e-02 3.874892485280999832e+00 7.892861272412000417e+00 3.962394888337999799e+00 2.658167648399999833e-02 3.904687634909000060e+00 7.958538280225000427e+00 3.937113408461000219e+00 3.982735387217000156e+00 4.048979027537000341e+00 3.860010234665999906e+00 2.069228374370999823e+00 2.057620803095999928e+00 1.992453371927999983e+00 1.964691191538000092e+00 1.980485888228000091e+00 5.932081744983999982e+00 1.983519087052000085e+00 6.054043245267999751e+00 1.973556446234000061e+00 2.003849820500999801e+00 5.916598340809000156e+00 5.840163174887999631e+00 5.903841104850999777e+00 1.941988582325000046e+00 1.921610537240000083e+00 5.892145840615000019e+00 2.058944844007000174e+00 5.845825123460000050e+00 5.901623082267000164e+00 5.934499100843000363e+00 1.922178829321999904e+00 5.925031892174000170e+00 5.990599600312999762e+00 5.926714921903999844e+00 1.903290113930999894e+00 2.252521351877999845e+00 7.822308560934000177e+00 7.786089963514999823e+00 1.986717793161000056e+00 2.070573310942000145e+00 1.978247323618999909e+00 5.549555375600000173e-02 1.930594931761999922e+00 2.072428795898999976e+00 2.129378269691000192e+00 3.865101121637000148e+00 2.015026526999999859e-02 1.953806465875000065e+00 5.857450303019000160e+00 2.013473318359999986e+00 1.913031156580000114e-01 5.803901054620999922e+00 1.930994522533999946e+00 6.052200163163999669e+00 7.811458259405999804e+00 1.081679294000000013e-01 6.038845647682999918e+00 1.986225425750000051e+00 2.004029889797999786e+00 4.056371221685999728e+00 1.964939057599000005e+00 2.064053902088000214e+00 6.007333312557999960e+00 3.950514710123000039e+00 7.874586446532999773e+00 6.082434420182000423e+00 5.865030188893999963e+00 1.840773735219999985e+00 4.107436596868000223e+00 5.808016018474999598e+00 5.989092810818999801e+00 1.865637477881999962e+00 9.980935130300000457e-02 3.889083108278000189e+00 1.980137010126999941e+00 1.863714517075000021e+00 5.845748433103000075e+00 7.947876388094999633e+00 2.127661529796999851e+00 5.669172847269999593e+00 2.037202286693000186e+00 4.025205115460999572e+00 3.964937249697999988e+00 1.981894693209000025e+00 6.010102339830999618e+00 5.863975457715000061e+00 7.938536989237999997e+00 5.784179488404999958e+00 5.957714735497000369e+00 5.886341083260999696e+00 7.844918073220999766e+00 3.977922810872999815e+00 5.951600068543999811e+00 2.004395473299999786e+00 5.841473263374999725e+00 3.979672532368999871e+00 1.916579254201000060e+00 5.899478559168000125e+00 5.891695054939000364e+00 3.870067556166000067e+00 3.982680689367999793e+00 6.053744938082999738e+00 5.869981003432999778e+00 5.914746947279000189e+00 4.001948655607000305e+00 6.009125358290000385e+00
7.085363336399999601e-02 7.937531229191000293e+00 2.639196583400000087e-02 1.085797174299999932e-02 3.987812539082999930e+00 3.989468871828000029e+00 3.785780890189999859e+00 6.927493172699999979e-02 7.833595898976000171e+00 4.046878276133999641e+00 3.874930753580000165e+00 1.702754934400000156e-02 -6.351743299999999641e-03 1.194503823370000051e-01 3.865080771074000054e+00 2.561309009100000075e-02 3.964131847865000058e+00 3.600394219300000198e-02 3.888278741789000126e+00 7.957213582075000069e+00 3.947412900733000107e+00 4.000657532846999764e+00 4.076132380567999647e+00 3.833834240520999970e+00 2.089790250759000045e+00 2.101519859169000082e+00 2.008408158274999966e+00 1.977729572494999921e+00 1.980936120815999901e+00 5.948924118602000100e+00 1.980016073385999942e+00 6.059827946826000122e+00 1.965715912527999931e+00 2.000840921358999935e+00 5.884726391507999921e+00 5.836319403940000150e+00 5.929359552445999881e+00 1.912036370013000086e+00 1.917068191665000088e+00 5.882376716257000204e+00 2.045747714970000075e+00 5.829891776904999823e+00 5.888247969716999819e+00 5.929894792260999914e+00 1.945996428079999951e+00 5.943939990169999632e+00 6.025711511042000090e+00 5.910481923178999786e+00 1.862734687604000072e+00 2.286824639289999794e+00 7.807507618717999698e+00 7.776477985548000404e+00 1.976699874374999943e+00 2.114059490065999913e+00 1.981909412989000030e+00 9.499826877700000283e-02 1.925815473944000100e+00 2.125016118531999787e+00 2.159160947879999792e+00 3.900930985682999896e+00 -1.095832325999999924e-03 1.949816447631000038e+00 5.834436951067999644e+00 2.024636371031999893e+00 2.018723285340000007e-01 5.787318199799000418e+00 1.951182655828999968e+00 6.089772328049999572e+00 7.836052491130000242e+00 8.228130737500000125e-02 6.061294151148000076e+00 1.990271133435000062e+00 2.003243917058000090e+00 4.052296072629999912e+00 1.954909227347999989e+00 2.088137097785999874e+00 6.073063463949000429e+00 3.890368477686000137e+00 7.879653431214999948e+00 6.137599017258000167e+00 5.854742831997000074e+00 1.853458828963999938e+00 4.071395646821000192e+00 5.811261122108000166e+00 6.008005413961999608e+00 1.835504842318000041e+00 8.209866063600000652e-02 3.902758897847999897e+00 1.978757377585000032e+00 1.829552172774999930e+00 5.780221931130999913e+00 2.316630812400000128e-02 2.145411139663000011e+00 5.625889192018999729e+00 2.085770437402000077e+00 3.999067504355000136e+00 3.916533687342000025e+00 2.026586109384000078e+00 6.083931039591999657e+00 5.879345692712999671e+00 7.947390522994999706e+00 5.800515972317000113e+00 6.019359630508000158e+00 5.857739163097000379e+00 3.600433802099999719e-02 3.983442585880999864e+00 5.971402544501000165e+00 1.979240527111999937e+00 5.843319207709999574e+00 3.937881000237999807e+00 1.917210739111999906e+00 5.904562741249000268e+00 5.825073827017999584e+00 3.878517012955000176e+00 3.957346749162999888e+00 6.035259996807000427e+00 5.887057349250000016e+00 5.950189259543000375e+00 3.938220458445000016e+00 6.044281875373999746e+00
7.706060741499999589e-02 7.942918278919999686e+00 3.236524792400000128e-02 7.618632099000000220e-03 3.988159710608000008e+00 4.003362868806999764e+00 3.766090097205999854e+00 7.065345448099999426e-02 7.836663620297000143e+00 4.068522180817000233e+00 3.859185938277000183e+00 1.718619857100000051e-02 -6.773126219000000399e-03 1.361523122359999949e-01 3.861083622499999812e+00 2.956359605399999993e-02 3.967674168019000192e+00 4.646963212300000284e-02 3.879501060217000141e+00 7.960805542033000393e+00 3.958875174592999979e+00 4.019135726586999802e+00 4.103352244782000113e+00 3.811462291050999873e+00 2.096780303477999929e+00 2.146677865462999879e+00 2.032289774056999843e+00 1.989838872291999960e+00 1.996893933626999962e+00 5.954421463303000372e+00 1.975998874877000100e+00 6.055944961341999999e+00 1.951680131392999895e+00 1.998547211668000090e+00 5.867909846239999894e+00 5.847251921257999641e+00 5.960771937270999743e+00 1.889293745673999991e+00 1.922117764373999949e+00 5.872101589042999947e+00 2.026166348602000067e+00 5.816715883804000065e+00 5.875949137351000218e+00 5.927361204980000409e+00 1.988095036615000089e+00 5.964093961977000369e+00 6.074460263118999670e+00 5.882259518116000230e+00 1.802037357642999993e+00 2.273624764966999834e+00 7.832441037784000137e+00 7.819536276997999913e+00 1.969363344243999947e+00 2.160397711072000071e+00 1.977595002578000027e+00 1.266223182719999896e-01 1.944191879077999952e+00 2.173416069933999939e+00 2.168101986423999872e+00 3.931724702532000126e+00 7.828215111567000228e+00 1.956660888930999986e+00 5.794665741931000369e+00 2.015720677293999952e+00 1.290899279620000006e-01 5.780746998787999580e+00 1.973798250168999902e+00 6.110976879836999665e+00 7.842016683300999880e+00 7.914766009742000286e+00 6.075557207262000325e+00 2.002466168296999971e+00 1.993525090482000106e+00 4.043330522500999891e+00 1.949162840767999949e+00 2.096817549473000142e+00 6.144658764943000229e+00 3.860208094413000168e+00 1.690346564500000079e-02 6.171413437444999595e+00 5.836082096425999843e+00 1.896548285244999965e+00 4.061958143260000043e+00 5.831248910912999683e+00 6.019790539634000126e+00 1.824882486886000077e+00 2.635225360399999842e-02 3.914658744501000154e+00 1.988998080807999891e+00 1.821421744902000039e+00 5.843983589515000077e+00 7.971899178473999648e+00 2.153434629199999950e+00 5.614855676580000399e+00 2.129783091203000023e+00 3.966413211007000061e+00 3.879959085614999914e+00 2.092726769227000183e+00 6.131432551157000255e+00 5.902098420353000030e+00 7.943875269198000133e+00 5.825875804750999976e+00 6.046987798257999813e+00 5.925825417315000010e+00 4.959719487800000326e-02 3.987243365878000212e+00 6.001511396597000392e+00 1.946791208627000058e+00 5.874080841617000281e+00 3.920461475219000125e+00 1.932409376505000109e+00 5.914588274346000318e+00 5.768490569499999943e+00 3.944676124982000154e+00 3.923256957701000136e+00 5.991144796719000354e+00 5.896591815253000135e+00 6.000908390025999850e+00 3.903716057140000029e+00 6.057980430849999820e+00
8.233256106099999527e-02 7.950878534660000163e+00 3.529374958700000342e-02 7.897476489064000127e+00 3.989524153676999862e+00 4.013344513813000169e+00 3.753566914553000178e+00 6.856426343099999987e-02 7.842300616642000399e+00 4.088762144472999793e+00 3.853209390765000020e+00 1.487493919599999943e-02 -3.999818744999999662e-03 1.459479089200000079e-01 3.862781938116000013e+00 3.029938675200000153e-02 3.972305789537999843e+00 5.690331891699999811e-02 3.874043720532000190e+00 7.968313780166999649e+00 3.968763686011000047e+00 4.035823759986000070e+00 4.127245414112000077e+00 3.794822184606000182e+00 2.092956608295000187e+00 2.173336620129000085e+00 2.059741540279000027e+00 1.994158662148999950e+00 2.008467168390000168e+00 5.949640506099999726e+00 1.964091816712999927e+00 6.055238048772999981e+00 1.938507705521999913e+00 2.002050292029999845e+00 5.879650566287000224e+00 5.866703670618999666e+00 5.991738683437000113e+00 1.877542153789999890e+00 1.928316151219999997e+00 5.871279710820999753e+00 2.018621930164000045e+00 5.809922542265000267e+00 5.874979927018999959e+00 5.925804213593999670e+00 2.022603139554000062e+00 5.983431708879000333e+00 6.119526821737999889e+00 5.859273981660000352e+00 1.734118876209000071e+00 2.216743765047000103e+00 7.872643357929000274e+00 7.882519470736999878e+00 1.969844968342000069e+00 2.196152476117000152e+00 1.967174962939000071e+00 1.270278555179999991e-01 1.976361176506000072e+00 2.209174960567999779e+00 2.161197793936000089e+00 3.952821149761000186e+00 7.787649306150999706e+00 1.957372470961999955e+00 5.735846908702000313e+00 1.992881386904999941e+00 6.541165862299999634e-02 5.793802427884999773e+00 1.981306819232999894e+00 6.100853016369000237e+00 7.839373553184000087e+00 7.886923915905000193e+00 6.073589874780999764e+00 2.024468950190999816e+00 1.976349213320000020e+00 4.060031677889999635e+00 1.951001271376999968e+00 2.087047872919999936e+00 6.183524298870000102e+00 3.863358235937000007e+00 3.527672987399999710e-02 6.166438431376000118e+00 5.811982554743000406e+00 1.942380348314000083e+00 4.067916204611999653e+00 5.860232174505999758e+00 5.988086992902999839e+00 1.880881459980999981e+00 7.872622225411999963e+00 3.920261266523000110e+00 2.010579247406000025e+00 1.836919874059999902e+00 5.881359863619000095e+00 7.948609702958999712e+00 2.166416441077999799e+00 5.626540819448000441e+00 2.143367137354000196e+00 3.942717852732999795e+00 3.864213326583000097e+00 2.141924118692000167e+00 6.131638112706999877e+00 5.904767882021999981e+00 7.939943773362999835e+00 5.834499709025999792e+00 6.062458296017999793e+00 6.014430841214999823e+00 3.614947458900000243e-02 3.987564834111999801e+00 6.026653078285000298e+00 1.926275553313999911e+00 5.926154557878000162e+00 3.945955306851999911e+00 1.952493449444999918e+00 5.913854098092000022e+00 5.744478821458000262e+00 4.033851274096000417e+00 3.912780612954000148e+00 5.934201249328999950e+00 5.891323698889999960e+00 6.050055762020999595e+00 3.911304945922000176e+00 6.054089520942000036e+00
8.646241599600000549e-02 7.958788838191000359e+00 3.477527844400000318e-02 7.899307475876000240e+00 3.992066502116999871e+00 4.019920121892000431e+00 3.747515313635000123e+00 6.283670666900000035e-02 7.849163382030999614e+00 4.107117894009999937e+00 3.857700142819000089e+00 9.580826716999999923e-03 4.335222540999999694e-03 1.462298911859999939e-01 3.869960237002000092e+00 2.660438810699999879e-02 3.978311987212999945e+00 6.576643560700000390e-02 3.868905036626999916e+00 7.977208751807999931e+00 3.974964694630000128e+00 4.047781481512999768e+00 4.145532202138999978e+00 3.786166650211999940e+00 2.079218400659000210e+00 2.170920320608999976e+00 2.083159103735999995e+00 1.988382700328999997e+00 2.009730407879999792e+00 5.940123395656000227e+00 1.942384392149000050e+00 6.064410711589999892e+00 1.937700917152999969e+00 2.013091591705999939e+00 5.919297451171000368e+00 5.885324458230999589e+00 6.018554413883999921e+00 1.874066131204999985e+00 1.935752147802999978e+00 5.885514098485000289e+00 2.036956960211000034e+00 5.807932234758999890e+00 5.891812004273999648e+00 5.927630254499000273e+00 2.030784387201999941e+00 6.001303761039999962e+00 6.143474319799000050e+00 5.859722270959999868e+00 1.717076199165000094e+00 2.080468857521000192e+00 6.115536934999999709e-03 1.064232115299999955e-02 1.980798918128999997e+00 2.207374016910999881e+00 1.957102825103000043e+00 9.311657872699999339e-02 2.010621901112000121e+00 2.222003672931000207e+00 2.142535022490999808e+00 3.969441395022999863e+00 7.786560968573000174e+00 1.937963259785000059e+00 5.668894432201000200e+00 1.970106985091000018e+00 7.567397329599999389e-02 5.829334952322000163e+00 1.964666953033000096e+00 6.062815957291999958e+00 7.853369782186000236e+00 7.895186076789999952e+00 6.053560782938999907e+00 2.050752463482000021e+00 1.957793718735000077e+00 4.094486274841999673e+00 1.960776900101000031e+00 2.063203417607000212e+00 6.169255304687999875e+00 3.874842403850999872e+00 4.473589953999999869e-02 6.126122283527999812e+00 5.790706265236999606e+00 1.963039514784000072e+00 4.054923753206000292e+00 5.893521840464999606e+00 6.022234905257000115e+00 1.843863966924000009e+00 3.055805725200000031e-02 3.928619634647999792e+00 2.038455665162000052e+00 1.868061271058000017e+00 5.936567767631999892e+00 7.944573711084999879e+00 2.189142909430000117e+00 5.652313467285000392e+00 2.117242252126000146e+00 3.928178636087999998e+00 3.863045528099999792e+00 2.145028726877999947e+00 6.084362984812000441e+00 5.875627040924999989e+00 7.975044258772999939e+00 5.812455778817000152e+00 6.054702287215000034e+00 6.094734579874000246e+00 2.626945702699999899e-02 3.988479896245999967e+00 6.034276479505000346e+00 1.932136481726999921e+00 5.986611049842999854e+00 4.001109540705999557e+00 1.966673388260999911e+00 5.893862678945000155e+00 5.761289743162000043e+00 4.062373288562000084e+00 3.937282799885999829e+00 5.887260798427999653e+00 5.873793551690000392e+00 6.080075919831999798e+00 3.932007680014999895e+00 6.043200440310999788e+00
8.878714072200000196e-02 7.964866229625999772e+00 3.091122975399999973e-02 7.898277795751999619e+00 3.996568829206000206e+00 4.022896651027999759e+00 3.747858326854000222e+00 5.404014109900000251e-02 7.856518347111999923e+00 4.121677509939999595e+00 3.871668377023000041e+00 1.039444492000000031e-03 1.739023062700000011e-02 1.356455779630000025e-01 3.881591040978999985e+00 7.932231277741999875e+00 3.985304115977999828e+00 7.259051350700000682e-02 3.864688884455000029e+00 7.985342431675999997e+00 3.976091590024999789e+00 4.052619174870000229e+00 4.156728968647000144e+00 3.785874347478999979e+00 2.059258655299999852e+00 2.145254592412999983e+00 2.096241412023999828e+00 1.974419605885999962e+00 2.009787485289999953e+00 5.931760236428999633e+00 1.914849315045000111e+00 6.079422516198000004e+00 1.956367245939000021e+00 2.031070179914999940e+00 5.964199505602000073e+00 5.894963688609999863e+00 6.036540827291999811e+00 1.872728215204999991e+00 1.951285707248999968e+00 5.911544628377000343e+00 2.077344947729999891e+00 5.802712817834000170e+00 5.921585123457999700e+00 5.936861070756999759e+00 2.011553261748999955e+00 6.014404283640000237e+00 6.146495848346999580e+00 5.884223180952999677e+00 1.661845904416000108e+00 2.047330556543999869e+00 7.884063592578000268e+00 7.908246943732000211e+00 1.999561486606000082e+00 2.191461845475000114e+00 1.951683774918999914e+00 4.476500787200000248e-02 2.037961873743999952e+00 2.201564254801000153e+00 2.114055685305999965e+00 3.965677671064999910e+00 7.823289397495000408e+00 1.900283176729999912e+00 5.616586387112000089e+00 1.958282516092000103e+00 1.281580602090000021e-01 5.877910003319000154e+00 1.927883130542999979e+00 6.017400052413999667e+00 7.877202443457999692e+00 7.933751685802000075e+00 6.026007430563000256e+00 2.068288606490999992e+00 1.946165080284999904e+00 4.094536249801000061e+00 1.976330204621000064e+00 2.035077217428999941e+00 6.108105029247999695e+00 3.902694701768000041e+00 3.470240567300000162e-02 6.072751459946999830e+00 5.785086822239000170e+00 1.945805760028999964e+00 4.039941713693999681e+00 5.928913640343999703e+00 6.019425172068999963e+00 1.871575936101000037e+00 1.029001810789999943e-01 3.930349855215999888e+00 2.065943997209000127e+00 1.903698368804999985e+00 6.000799697608999672e+00 7.984431248049999930e+00 2.213738951689999901e+00 5.686457049400000408e+00 2.071082321147000194e+00 3.929675811884000058e+00 3.879979282938000207e+00 2.100564327881000004e+00 6.013044998523000118e+00 5.774911701987999635e+00 4.636299327599999881e-02 5.768273056992000214e+00 6.024626035657999701e+00 6.146587100128999559e+00 2.398756084499999858e-02 3.998635944986999924e+00 6.023658889485999701e+00 1.962263870307999980e+00 6.040561257079000157e+00 4.059032326379999667e+00 1.965708717724000021e+00 5.864047036727000339e+00 5.819057567093000038e+00 4.004656814079000426e+00 3.973779688140000044e+00 5.871287632108000309e+00 5.856975081527999727e+00 6.084117684479999788e+00 3.945274668931999962e+00 6.037497765581999687e+00
8.847110737799999958e-02 7.969339587794999957e+00 2.391086024000000157e-02 7.895258874067000221e+00 4.003675825951000355e+00 4.021349006416000016e+00 3.805814563737000000e+00 8.033179419274999233e+00 7.864431777281000180e+00 4.094088716164000274e+00 3.944984158621999804e+00 7.886483216258000084e+00 3.200857618300000096e-02 1.147531081100000017e-01 3.896617419866000187e+00 7.932008528275999559e+00 3.992007957484999814e+00 7.818181044399999391e-02 3.865056853476999787e+00 7.992409847648000110e+00 3.972212984961999815e+00 4.049691528261999629e+00 4.160422520936999824e+00 3.792177181135000019e+00 2.038622915002000102e+00 2.111746465950000040e+00 2.095332051529000150e+00 1.957527870670999981e+00 2.021347582143000032e+00 5.929485483472999974e+00 1.891834854762000084e+00 6.087478567839999855e+00 1.990970503673000103e+00 2.052706306571999928e+00 5.991417951048999768e+00 5.894582916960000141e+00 6.040903129584999753e+00 1.871111752850000087e+00 1.981260341830999971e+00 5.939128445287000346e+00 2.118682772931999914e+00 5.786765332748999846e+00 5.950293068931999940e+00 5.955144527126999598e+00 1.980414119069999979e+00 6.017924007183999890e+00 6.144444613135999766e+00 5.911391531523999987e+00 1.686313532910000079e+00 1.986770543251999976e+00 7.864028923345999900e+00 7.892834110102000089e+00 2.019848786638999805e+00 2.157357076094999826e+00 2.000409721685000086e+00 7.990742995207999577e+00 2.055900890098000033e+00 2.141857879459000191e+00 2.074326073877999832e+00 3.933605717803000168e+00 7.873049208120000308e+00 1.865119067273000031e+00 5.603084474181000196e+00 1.960220694235000005e+00 1.332296224739999979e-01 5.919963841331999710e+00 1.885241626360000033e+00 5.987398462852000058e+00 7.890554089546999883e+00 6.295180856700000049e-02 6.009160563095999663e+00 2.064574953665000212e+00 1.945970659931999913e+00 4.030152421147000119e+00 1.993691656640999899e+00 2.013050385854000091e+00 6.025088404834000322e+00 3.966333005757999963e+00 7.912974666266999968e+00 6.034384772594999724e+00 5.805922273508000053e+00 1.899967816243000041e+00 4.048268230551999913e+00 5.965048476353000062e+00 6.019920258590000017e+00 1.912270765409999962e+00 1.430609186869999938e-01 3.913235426525000005e+00 2.084056181493000093e+00 1.934363332763999965e+00 6.013951385183999854e+00 5.580226458700000142e-02 2.223608935267999964e+00 5.727752041032999841e+00 2.044489378335000218e+00 3.957962570968000193e+00 3.913413775089999991e+00 2.035310565307999919e+00 5.946936995619999777e+00 5.732721289220999772e+00 5.511983423599999682e-02 5.731431952087000070e+00 5.984473920346999876e+00 6.163912136137000175e+00 6.680777675000000061e-03 4.016948220917999635e+00 6.005349173619999981e+00 1.999147871836000068e+00 6.076879560699000038e+00 4.099582899165000072e+00 1.943592796612999996e+00 5.845683705998999891e+00 5.912303194374000093e+00 3.924507896545000207e+00 3.988770724840999815e+00 5.893155330337999764e+00 5.855641082755999705e+00 6.066467087078000198e+00 3.961026487664999873e+00 6.041147764216000304e+00