-2.919760338290000072e+04
-2.919689292470000146e+04
-2.919648085709999941e+04
-2.919645482099999936e+04
-2.919634324099999867e+04
-2.919595871899999838e+04
-2.919605877500000133e+04
-2.919628017909999835e+04
-2.919617033069999889e+04
-2.919612439340000128e+04
-2.919628591349999988e+04
-2.919648765070000081e+04
-2.919622082460000092e+04
-2.919578812000000107e+04
-2.919534562530000039e+04
-2.919573246909999943e+04
-2.919565137120000145e+04
-2.919472678670000096e+04
-2.919415392549999888e+04
-2.919438925409999865e+04
-2.919416106040000159e+04
-2.919386672420000104e+04
-2.919422869720000017e+04
-2.919408538430000044e+04
-2.919387334669999836e+04
-2.919446606640000027e+04
-2.919422744619999867e+04
-2.919308067740000115e+04
-2.919314940610000122e+04
-2.919388476779999837e+04
-2.919418311969999922e+04
-2.919446596929999941e+04
-2.919454891760000100e+04
-2.919442581359999895e+04
-2.919489117650000117e+04
-2.919523939310000060e+04
-2.919573130429999947e+04
-2.919561353709999821e+04
-2.919554457750000074e+04
-2.919588343639999948e+04
-2.919587465769999835e+04
-2.919574401890000081e+04
-2.919588171990000046e+04
-2.919594163159999880e+04
-2.919624491510000007e+04
-2.919636959270000079e+04
-2.919655903939999916e+04
-2.919668597320000117e+04
-2.919684691720000046e+04
-2.919677301509999961e+04
-2.919655612449999899e+04
-2.919649861370000144e+04
-2.919649759740000081e+04
-2.919653384450000158e+04
-2.919639686470000015e+04
-2.919654353009999977e+04
-2.919664929480000137e+04
-2.919650519350000104e+04
-2.919637541019999844e+04
-2.919650257480000073e+04
-2.919637075190000178e+04
-2.919621241029999874e+04
-2.919611664219999875e+04
-2.919596364370000083e+04
-2.919575785940000060e+04
-2.919548247199999969e+04
-2.919542654250000123e+04
-2.919541247360000125e+04
-2.919500855080000110e+04
-2.919489279529999840e+04
-2.919473485269999946e+04
-2.919481563979999919e+04
-2.919459288590000142e+04
-2.919431753780000145e+04
-2.919403024070000174e+04
-2.919364038309999887e+04
-2.919391218179999851e+04
-2.919372756020000088e+04
-2.919329914120000103e+04
-2.919342545299999983e+04
-2.919367876600000091e+04
-2.919366299589999835e+04
-2.919418625130000146e+04
-2.919466458559999955e+04
-2.919460665220000010e+04
-2.919484091690000059e+04
-2.919507660889999897e+04
-2.919498073959999965e+04
-2.919483384579999984e+04
-2.919537633980000101e+04
-2.919579712010000003e+04
-2.919590393390000099e+04
-2.919602298879999944e+04
-2.919627908020000177e+04
-2.919632873430000109e+04
-2.919625063130000126e+04
-2.919644504959999904e+04
-2.919651801960000012e+04
-2.919638924359999874e+04
-2.919640017929999885e+04
-2.919648843639999905e+04
-2.919664160370000172e+04
-2.919662477829999989e+04
-2.919657983389999936e+04
-2.919678538140000092e+04
-2.919685276589999921e+04
-2.919668511230000149e+04
-2.919640213020000010e+04
-2.919634816280000086e+04
-2.919651405929999964e+04
-2.919657612410000002e+04
-2.919656588579999880e+04
-2.919627790299999833e+04
-2.919606418439999834e+04
-2.919585041039999851e+04
-2.919592615460000161e+04
-2.919584929800000100e+04
-2.919595594530000017e+04
-2.919580125010000120e+04
-2.919538581089999934e+04
-2.919511338819999946e+04
-2.919476158809999833e+04
-2.919461428169999999e+04
-2.919419166050000058e+04
-2.919414065960000153e+04
-2.919392575120000038e+04
-2.919401534570000149e+04
-2.919398294119999991e+04
-2.919379984400000103e+04
-2.919358991379999861e+04
-2.919407157690000167e+04
-2.919420862829999896e+04
-2.919438179079999827e+04
-2.919406443120000040e+04
-2.919402890019999904e+04
-2.919431651200000124e+04
-2.919445184570000129e+04
-2.919467090299999836e+04
-2.919475979150000057e+04
-2.919509813040000154e+04
-2.919545207700000174e+04
-2.919572788479999872e+04
-2.919588373460000003e+04
-2.919604498840000088e+04
-2.919613217079999959e+04
-2.919625879590000113e+04
-2.919626984359999915e+04
-2.919629662059999828e+04
-2.919630160529999921e+04
-2.919660073550000016e+04
-2.919659790330000033e+04
-2.919651110089999929e+04
-2.919644117990000086e+04
-2.919676600999999937e+04
-2.919664079150000180e+04
-2.919667934429999877e+04
-2.919678162610000072e+04
-2.919673014820000026e+04
-2.919640779040000052e+04
-2.919637648980000085e+04
-2.919649193889999879e+04
-2.919639769080000042e+04
-2.919647292219999872e+04
-2.919646219940000083e+04
-2.919638442339999892e+04
-2.919630988050000087e+04
-2.919622373180000068e+04
-2.919596375930000067e+04
-2.919562011899999925e+04
-2.919536144129999957e+04
-2.919527236149999953e+04
-2.919496575630000007e+04
-2.919493084470000031e+04
-2.919487429039999915e+04
-2.919534118220000164e+04
-2.919433511830000134e+04
-2.919467300410000098e+04
-2.919394163589999880e+04
-2.919372958899999867e+04
-2.919330230400000073e+04
-2.919379615370000101e+04
-2.919353996199999892e+04
-2.919299065200000041e+04
-2.919389869950000138e+04
-2.919402076680000027e+04
-2.919457128739999825e+04
-2.919464052019999872e+04
-2.919487363710000136e+04
-2.919461692380000022e+04
-2.919502389119999862e+04
-2.919464135059999899e+04
-2.919487945019999825e+04
-2.919523746499999834e+04
-2.919567591239999820e+04
-2.919573898710000140e+04
-2.919572480269999869e+04
-2.919612927770000169e+04
-2.919623274039999887e+04
-2.919634578160000092e+04
-2.919630958900000041e+04
-2.919641987130000052e+04
-2.919650038199999835e+04
-2.919649604860000181e+04
-2.919644062960000156e+04
-2.919644975600000180e+04
-2.919667097989999820e+04
-2.919675027979999868e+04
-2.919662546680000014e+04
-2.919672273359999963e+04
-2.919669332809999833e+04
-2.919648392740000054e+04
-2.919640277010000136e+04
-2.919652122700000109e+04
-2.919628776129999824e+04
-2.919624798400000145e+04
-2.919631421760000012e+04
-2.919615754119999838e+04
-2.919624220000000059e+04
-2.919620122379999884e+04
-2.919615774349999992e+04
-2.919593976620000103e+04
-2.919582069630000115e+04
-2.919506744729999991e+04
-2.919524424640000143e+04
-2.919501044429999820e+04
-2.919459263260000080e+04
-2.919424112969999987e+04
-2.919458268030000181e+04
-2.919451855300000170e+04
-2.919399005210000178e+04
-2.919401241279999886e+04
-2.919362788979999823e+04
-2.919345291400000133e+04
-2.919364697910000177e+04
-2.919393805530000100e+04
-2.919466612140000143e+04
-2.919492951220000032e+04
-2.919475399599999946e+04
-2.919382195389999833e+04
-2.919444785490000140e+04
-2.919473007620000135e+04
-2.919479013470000064e+04
-2.919515322609999930e+04
-2.919519188999999824e+04
-2.919517977600000086e+04
-2.919517366019999827e+04
-2.919589625719999822e+04
-2.919603172579999955e+04
-2.919607721790000141e+04
-2.919647595260000162e+04
-2.919655912560000070e+04
-2.919640872099999979e+04
-2.919648212720000083e+04
-2.919659156570000050e+04
-2.919642504589999953e+04
-2.919635274299999946e+04
-2.919644099650000135e+04
-2.919639199450000160e+04
-2.919651886430000013e+04
-2.919674364820000119e+04
-2.919666209460000027e+04
-2.919658207939999920e+04
-2.919662026160000096e+04
-2.919641201179999916e+04
-2.919647933650000050e+04
-2.919644078200000149e+04
-2.919636981889999879e+04
-2.919626689370000167e+04
-2.919625731729999825e+04
-2.919614494109999941e+04
-2.919574493810000058e+04
-2.919558002199999828e+04
-2.919546178040000086e+04
-2.919547191450000173e+04
-2.919505872779999845e+04
-2.919517255989999830e+04
-2.919503760899999907e+04
-2.919480455029999939e+04
-2.919511287079999965e+04
-2.919446052459999919e+04
-2.919406851839999945e+04
-2.919428465639999922e+04
-2.919384975570000097e+04
-2.919364509800000087e+04
-2.919410102449999977e+04
-2.919425317469999936e+04
-2.919389287350000086e+04
-2.919295393680000052e+04
-2.919401390579999861e+04
-2.919422636000000057e+04
-2.919421610900000087e+04
-2.919423652930000026e+04
-2.919495844009999928e+04
-2.919520596099999966e+04
-2.919519220480000149e+04
-2.919547056890000022e+04
-2.919567796680000174e+04
-2.919589886180000030e+04
-2.919600790739999866e+04
-2.919596290310000040e+04
