-3.842507853700000142e-02 -6.150763571000000124e-02 3.896507025800000079e-02 3.673394698000000125e-02 7.772912386199999635e-02 -2.480712351399999918e-02 1.503438362620000135e-01 5.226609232099999752e-02 2.981251927200000151e-02 -1.596769838269999908e-01 2.083060382100000024e-02 -8.063119854500000461e-02 -7.469346228900000662e-02 -1.486635347949999963e-01 5.870440454999999863e-02 8.585955434500000538e-02 8.057851680699999741e-02 -4.204781716299999667e-02 1.047939548479999983e-01 -1.241528709499999973e-02 3.342892265300000110e-02 -9.009543638500000506e-02 1.339358967700000035e-02 4.548070009499999983e-02 -1.878165476460000038e-01 1.102593113619999982e-01 6.498060922600000511e-02 8.184757547599999516e-02 2.047442871529999986e-01 -8.763510784200000125e-02 -2.014916520599999983e-01 -1.538384524829999878e-01 2.844219694280000210e-01 -3.884165333319999913e-01 -2.991792722130000026e-01 -2.948772361349999982e-01 1.995193406390000090e-01 -1.542812820320000056e-01 1.637986572840000044e-01 -1.548916349109999979e-01 -2.670831013509999963e-01 -1.901668909700000021e-01 2.334328401119999952e-01 1.791267503370000125e-01 2.937978905879999880e-01 3.457520745309999866e-01 3.088840703299999824e-01 -2.812586725899999807e-01 -2.636595305000000167e-02 -7.519508238300000313e-02 -8.952633497999999690e-02 -5.767948069199999722e-02 -3.231109158400000125e-02 -6.961599858000000474e-02 3.581468546100000094e-02 5.214404176299999860e-02 1.424394222299999943e-02 9.392402903900000377e-02 -7.125885621699999672e-02 2.961133696909999946e-01 1.303895499899999921e-02 2.753108522999999849e-02 -3.218125493599999914e-02 -1.537805574000000036e-02 1.977194721380000075e-01 -5.515957884600000000e-02 9.342101819100000204e-02 5.991398188699999933e-02 2.449159524669999866e-01 9.141541128699999519e-02 -5.056333354900000021e-02 -6.379720324599999492e-02 -3.258084555000000018e-03 -1.062808783889999942e-01 -6.797895583700000466e-02 5.482990139399999963e-02 1.657663063860000119e-01 -2.929255737049999975e-01 -1.885583259199999917e-01 1.374157660860000074e-01 2.949335496999999987e-02 2.271968304810000061e-01 -3.761597175809999749e-01 5.226221471599999668e-02 2.173831483999999828e-02 5.456235300799999743e-02 3.665996568600000255e-02 -1.154483219799999974e-02 -4.196450788000000327e-03 4.202917763599999662e-02 -5.270716951200000305e-02 2.510790062650000154e-01 -8.818614305699999656e-02 1.121356056919999983e-01 1.048479863699999931e-01 -2.304338790190000041e-01 -3.136800711300000155e-01 1.126631270109999944e-01 3.170963442000000135e-03 6.267549369500000078e-02 7.495689348999999557e-02 9.028835897299999913e-02 -6.825241769400000602e-02 7.605242048200000493e-02 5.333929641299999663e-02 4.192726602599999852e-02 3.945045607699999846e-02 -3.003125963699999901e-02 5.539303294999999884e-03 -2.315317072420000066e-01 6.929514697100000453e-02 -1.537465317189999903e-01 -9.301036178799999832e-02 8.535421302399999466e-02 1.088451813240000066e-01 -9.047687483400000674e-02 2.928984437300000132e-02 -1.410686771999999922e-02 -1.739623218309999941e-01 -3.858631533799999902e-02
-1.227990005890000069e-01 -1.212037966569999986e-01 -2.484953364689999888e-01 -9.029366471399999372e-02 3.660786068970000029e-01 -3.647563814840000251e-01 5.152043235290000300e-01 -2.838500208659999746e-01 -1.412061048369999960e-01 -5.248849418929999455e-01 5.355380613389999489e-01 -1.971828469870000045e-01 -3.507433093969999915e-01 -4.212200562339999954e-01 2.956444020649999782e-01 2.948257597980000200e-01 2.042241116319999938e-01 1.051520439099999996e-02 5.681475632589999547e-01 -1.591328500109999988e-01 2.170250492370000006e-01 -6.834770760599999384e-02 1.872173669159999942e-01 8.695335674300000428e-02 -7.247329893439999893e-01 6.519078041089999553e-01 2.343935215919999981e-01 1.552601977410000000e-01 1.632737099599999853e-02 -3.005463056970000268e-01 -1.261921741399999949e-02 -1.027060304599999974e+00 -6.331625673000000620e-02 -4.589130416469999751e-01 -6.681275421999999589e-03 3.192797218830000228e-01 7.129287350409999613e-01 -2.529732623639999733e-01 3.700348327960000239e-01 -4.187025008560000261e-01 -8.800707516050000345e-01 -3.030883333389999823e-01 -9.359093382100000524e-02 2.508868145929999960e-01 1.530299590909999896e+00 3.947111678260000200e-01 1.058974247951999903e+00 -1.408669221495999935e+00 -2.505401993479999811e-01 -4.627644902410000260e-01 -4.633284388610000026e-01 -6.842263751999999588e-02 -7.082497451199999683e-02 -5.345392241000000363e-03 2.315100891999999962e-03 2.300638908640000035e-01 2.200903293929999949e-01 8.625695651699999411e-02 -2.657870937890000063e-01 9.513300964619999522e-01 -2.825605139999999918e-02 2.764950158610000042e-01 -1.015759754259999981e-01 -1.876555296409999907e-01 3.237886832760000222e-01 2.759371739899999995e-02 3.278068415970000204e-01 1.633280363800000134e-01 8.086607061080000047e-01 -5.471791765900000382e-01 -5.642258022100000298e-02 -6.841719538200000117e-02 -6.670333790299999566e-02 -3.897150473620000222e-01 -6.976177231300000059e-02 -5.158816398999999803e-03 6.076210623090000373e-01 -1.307048460420999980e+00 -1.025995508040000032e-01 2.208415105690000046e-01 -5.262205464400000060e-02 6.844172168219999630e-01 -1.412788093265000100e+00 3.345691305719999953e-01 -1.052506753909999981e-01 2.901195694459999808e-01 -2.838166170570000091e-01 5.131376058009999852e-01 4.873330608299999978e-02 2.423371649230000036e-01 2.063730512899999980e-01 5.563999565010000481e-01 -4.454757454609999945e-01 4.820045633080000114e-01 3.806435080939999938e-01 -9.752962637380000466e-01 -1.155017131027999966e+00 6.606814102079999751e-01 8.087056804900000229e-02 4.457966815769999758e-01 4.466084343819999858e-01 4.789250312319999758e-01 5.016255047300000047e-02 6.105906850050000223e-01 8.823746189190000422e-01 -1.236341123740000020e-01 2.163715733069999925e-01 -3.161291868569999775e-01 2.662327370120000092e-01 -7.255248672690000067e-01 1.893570628950000112e-01 7.763109449600000267e-02 -3.348903854320000040e-01 -4.134674739500000112e-02 -4.618869017400000221e-01 -3.692763035650000192e-01 9.651394185000000681e-02 1.847192804380000108e-01 -1.063254873303999926e+00 -2.193434105840000037e-01
-1.526192689710000050e-01 5.358609054999999635e-03 -3.587079127289999891e-01 -2.221920434240000075e-01 3.130725342219999874e-01 -6.822832937560000532e-01 7.918651741919999765e-01 -4.577719608370000026e-01 -7.276482169499999542e-02 -6.682092673699999708e-01 8.534935332459999691e-01 -2.685586981659999761e-01 -3.634236576770000227e-01 -4.714433899380000015e-01 3.736478929600000054e-01 2.915342828060000224e-01 1.285024063780000059e-01 7.632827474099999898e-02 7.426421151840000290e-01 -5.323355500000000184e-02 1.490750607380000037e-01 -6.245590261899999773e-02 9.696269198300000447e-02 1.126023302379999952e-01 -9.618930455569999483e-01 6.683930903539999635e-01 3.165818314109999920e-01 1.847120617090000083e-01 7.929543907730000063e-01 -5.286605243109999686e-01 2.114622382420000002e-01 -1.187058013351000030e+00 -3.403307546930000038e-01 -3.106253818349999918e-01 2.500564321980000004e-01 7.015764403180000386e-01 6.174951921069999905e-01 -5.884185648100000166e-02 6.917964956500000095e-01 -4.935277018829999918e-01 -9.185088927569999839e-01 -2.106526449239999876e-01 -3.409320066429999962e-01 1.274073855589999971e-01 1.744123238233999951e+00 1.705478458030000033e-01 1.043072544474000107e+00 -1.446661971456000062e+00 -3.720937844169999731e-01 -7.350933679100000173e-01 1.155128047160000060e-01 4.792045720890000249e-01 -4.942886966499999979e-02 9.910910397699999874e-02 -8.900845607200000287e-02 2.243774418280000127e-01 3.769417130619999723e-01 2.161209254700000026e-02 -3.758635618319999816e-01 5.078892398569999633e-01 -6.108766247050000375e-01 3.428267266230000110e-01 -2.088920830340000034e-01 -3.213434654680000224e-01 -1.178545649924999994e+00 5.098850785000000330e-02 2.901091004729999812e-01 2.204903390500000115e-02 1.998388399519999969e-01 -9.246246198249999937e-01 -9.298623213100000451e-02 3.156371689999999675e-02 -1.312997273950000099e-01 -4.693699560110000113e-01 -1.381290840099999931e-02 -1.449098577519999931e-01 6.004602869949999810e-01 -6.070624626499999676e-01 1.609002700749999903e-01 4.901873935000000335e-03 -1.577623607360000013e-01 7.544518221429999949e-01 -6.520213030910000374e-01 3.675257755129999748e-01 -1.752128283390000096e-01 3.486036935610000165e-01 -9.528378890630000431e-01 4.346689906790000002e-01 1.045257418100000030e-01 3.678644622360000005e-01 3.793673425049999826e-01 7.851747115200000127e-02 -4.610261122700000103e-01 6.087076468169999588e-01 3.194101676939999912e-01 -7.241403721629999790e-01 -5.874809815029999882e-01 7.520329413670000518e-01 -9.045819753000000629e-02 4.658502579150000100e-01 1.687486188919999908e-01 4.615421039559999827e-01 9.731854938799999744e-02 8.513019920940000373e-01 3.671312235690000203e-01 -7.880799783500000433e-02 2.676618876640000089e-01 -3.665703719489999957e-01 4.408049295329999895e-01 -3.318038907279999838e-01 2.770196898980000211e-01 1.835678149069999987e-01 -2.501749793660000276e-01 4.736988590139999955e-01 -6.254018978159999742e-01 -5.216629858639999506e-01 1.342375083999999916e-03 3.101162179920000095e-01 -5.608830308729999548e-01 -3.725166003459999819e-01
-1.608182595100000056e-01 1.923646357209999880e-01 -3.832025294999999998e-01 -3.140920337340000201e-01 1.040113495120000009e-01 -8.129614297470000306e-01 9.639212489549999763e-01 -4.750073884530000012e-01 1.064927018499999961e-01 -5.508988900250000320e-01 1.071914469743000087e+00 -3.078938380460000124e-01 -8.523211027600000045e-02 -4.814853365289999965e-01 3.960985744259999941e-01 2.302900403600000034e-02 6.666929474999999661e-03 8.831480373800000561e-02 5.907430437499999742e-01 1.782866504030000132e-01 -5.504739654799999798e-02 -1.111488683739999955e-01 -1.838461931650000047e-01 2.334391150139999982e-01 -7.138174240200000353e-01 1.834098787600000127e-02 3.591368470760000209e-01 -8.952682312199999881e-02 8.398330446870000410e-01 -7.154377814050000284e-01 -5.235931992799999768e-02 -6.093307457080000544e-01 -3.726034261060000019e-01 1.542934349000000052e-03 6.052751877619999554e-01 6.283480767619999963e-01 1.281189767310000061e-01 3.606837505430000035e-01 4.577841040389999949e-01 -1.531663672639999862e-01 -3.811708982690000247e-01 3.221811544099999897e-02 -7.946548845499999680e-02 -2.281496824099999918e-02 8.797067920529999530e-01 -9.141196788300000320e-02 5.500461681720000273e-01 -6.996558864090000052e-01 -3.506330443640000016e-01 -8.149744413080000083e-01 7.042092333410000515e-01 9.096974168370000058e-01 3.298779564700000250e-02 3.307515513200000312e-02 -1.535757373219999999e-01 -1.358116572630000130e-01 3.838153756580000020e-01 -9.886091651200000496e-02 -3.738192171909999750e-01 -1.825514422450000007e-01 -6.316633411990000280e-01 1.774398002239999939e-01 -3.082558788990000243e-01 -3.592392671030000262e-01 -1.575100433890000096e+00 1.147900241469999999e-01 2.257254971099999924e-02 -3.290458778550000019e-01 -4.455133505300000185e-01 -4.646869399960000258e-01 -1.761534023680000061e-01 1.230039077500000022e-01 -1.645392948109999920e-01 -1.320158626100000065e-01 6.067481116799999796e-02 -2.803751086929999747e-01 4.867149570899999972e-02 5.954057316390000132e-01 2.639010080829999882e-01 -4.212110080850000049e-01 -1.825125669600000111e-01 5.017338434260000257e-01 5.564029863160000478e-01 2.333327938860000061e-01 -1.617511842730000038e-01 3.178758955100000061e-01 -7.017389318629999595e-01 -1.068297080920000003e-01 1.857020557490000057e-01 4.344925906429999984e-01 4.350216630959999886e-01 -5.680696734279999660e-01 -1.758591057220000031e-01 5.070080115080000116e-01 -1.019653284180000036e-01 -9.265572824300000176e-02 2.462396142109999908e-01 3.503820524940000070e-01 -4.897273646549999970e-01 8.573371496499999911e-02 -3.195996887309999757e-01 1.118963521189999949e-01 -1.127024127000000051e-03 7.048516041179999636e-01 -5.911666320589999968e-01 -4.814793008200000252e-02 1.341282874920000090e-01 -1.330737121599999961e-01 4.458130604750000225e-01 4.279518198639999937e-01 2.372228537889999878e-01 5.066266302300000135e-02 1.454734401660000009e-01 1.021573967409999950e+00 -1.707132141809999948e-01 -4.669060908939999810e-01 -1.735581843139999969e-01 2.183415101919999879e-01 5.590378052240000395e-01 -4.116167416679999969e-01
-1.510202327580000004e-01 2.186885752409999939e-01 -4.508638150970000202e-01 -3.333367764210000139e-01 5.481256691400000075e-02 -6.758289981739999952e-01 1.013249263202000039e+00 -4.912473448219999983e-01 2.187218944390000031e-01 -3.303966422319999929e-01 1.366703816028000062e+00 -3.456008950139999869e-01 3.019829541490000047e-01 -6.520502779290000550e-01 4.785918740299999752e-01 -3.174828715369999999e-01 3.812525743200000095e-02 -2.365905603200000110e-02 2.636701959120000271e-01 2.702189562639999987e-01 -2.156977097979999869e-01 -2.419450961090000018e-01 -4.145158423849999996e-01 5.206914848810000329e-01 -5.400517813790000066e-01 -1.021696423100000084e+00 1.463155356409999996e-01 -4.334892943990000247e-01 -3.404171451690000127e-01 -5.639586578299999875e-01 -4.219402288879999796e-01 1.546609981319999882e-01 2.931654565699999895e-02 2.928351751309999917e-01 1.454184914890999991e+00 3.831959367860000021e-01 -1.073656715519999971e-01 5.854635835039999625e-01 -9.443986068999999858e-03 4.643217371230000112e-01 6.245924868229999483e-01 3.191106677830000127e-01 5.546394749240000088e-01 1.291538584999999892e-03 -4.744515067689999976e-01 -1.061147476309999976e-01 -2.656426380879999827e-01 2.430392414199999962e-01 -1.024499057079999997e-01 -7.350989894899999655e-01 2.331651454220000086e-01 3.172707091340000174e-01 1.316725173030000029e-01 -1.963798248270000046e-01 -1.098442785239999997e-01 -5.566973704059999806e-01 2.156338082539999979e-01 -2.304581654229999887e-01 -2.630859654380000023e-01 -1.926017148380000099e-01 1.329453109809999867e-01 -1.112831962139999992e-01 -3.312669275230000210e-01 -2.417775848940000027e-01 2.572330026669999992e-01 3.245481156960000058e-01 -2.743313847350000168e-01 -5.612678492539999731e-01 -1.810983115379999897e-01 3.060760465799999830e-01 -2.922099256099999764e-01 1.625174658490000090e-01 -1.289508780189999870e-01 4.791419922480000260e-01 1.275624844769999988e-01 -3.192993049830000207e-01 -6.136177994260000323e-01 5.899257600099999665e-01 7.031013930000000467e-02 -6.915715933410000460e-01 -9.878021071100000217e-02 2.393123063699999914e-02 2.825231567850000070e-01 1.231580604100000059e-01 -1.389323879300000120e-01 2.359513564840000077e-01 5.008915590439999566e-01 -1.380079395450000135e-01 1.847348395889999995e-01 3.933145289339999850e-01 3.829218476690000039e-01 -4.289249463690000264e-01 8.804467901800000496e-02 3.623544235019999782e-01 -5.449226664109999563e-01 1.776068626910000114e-01 3.670988932909999836e-01 -3.317947438339999833e-01 -8.366156433700000505e-01 -3.756398240280000023e-01 -7.736296721799999776e-02 -3.152447209190000210e-01 -2.294828465210000112e-01 3.014288563729999870e-01 -4.862681825910000200e-01 -7.603110808299999579e-02 -1.087911208030000049e-01 2.102520823700000097e-01 3.334581340169999741e-01 7.483672437110000519e-01 6.844366346699999604e-02 -2.049353445479999980e-01 5.780769868509999521e-01 4.321978478799999857e-01 4.223775778910000001e-01 -2.257423456590000044e-01 -2.727414895349999924e-01 -5.615881759699999781e-02 7.600685051409999948e-01 -3.157435935249999770e-01
-1.791245143970000009e-01 1.091342835480000051e-01 -5.032395967239999823e-01 -2.275562525860000129e-01 2.356014068650000015e-01 -4.297959717670000179e-01 1.038187132964000003e+00 -5.079231203709999587e-01 3.007326946139999846e-01 -2.590665463349999809e-01 1.598014519404999945e+00 -4.074376220270000126e-01 5.141047671789999995e-01 -8.904936377340000320e-01 5.431885625769999892e-01 -4.248100231140000127e-01 1.686538999859999999e-01 -1.820476284549999990e-01 6.768970909700000593e-02 2.023584688560000067e-01 -3.119617715269999980e-01 -4.254354445199999835e-01 -5.258994097720000038e-01 8.328525611220000124e-01 -4.766924670200000103e-01 -1.522701813647000080e+00 -2.379501443450000031e-01 -5.003995988639999837e-01 -5.658831482799999701e-01 -1.756678009579999977e-01 -4.646161097140000251e-01 5.734950580209999815e-01 6.620812188150000388e-01 3.826902740679999915e-01 1.490152007093999975e+00 -3.739687385200000241e-02 -2.054635252560000069e-01 4.509916707270000269e-01 3.979625069400000159e-02 8.176499649730000208e-01 1.369345326307999988e+00 3.163297933320000088e-01 9.642549531820000519e-01 2.046211004129999955e-01 -1.405987376017999946e+00 -4.787199638399999846e-02 -1.154673913953000008e+00 1.303120098946999983e+00 3.009309710870000099e-01 -4.156860673700000230e-01 -4.058419256510000239e-01 -5.799121583780000311e-01 1.829969268609999977e-01 -4.338773275710000044e-01 2.110564434299999972e-02 -5.946978212019999877e-01 1.553769994799999998e-02 -3.875472353739999876e-01 -1.801621047589999913e-01 -3.183143480100000117e-02 7.393087904809999555e-01 -3.477522608829999862e-01 -1.047899069270000066e-01 2.584588719099999848e-02 1.387963242257000074e+00 3.906058704079999888e-01 -4.120124767550000233e-01 -4.593334793389999837e-01 3.520584014479999913e-01 6.602550592960000353e-01 -2.957429929079999908e-01 7.282491264800000641e-02 -1.039723559500000012e-02 3.621999083820000020e-01 1.360106426550000136e-01 -2.255924137699999998e-01 -9.114097076970000266e-01 7.959863778400000367e-02 -1.591175611139999946e-01 -5.869055332889999699e-01 6.638271250400000489e-02 -4.571949586040000013e-01 -4.057642956079999808e-01 6.448999528500000411e-02 -9.754339668599999735e-02 1.765659151689999984e-01 1.161915429335999894e+00 8.873084298899999722e-02 9.527671634800000122e-02 2.549448262360000106e-01 2.872006312170000131e-01 3.784947948879999746e-01 1.738201820239999862e-01 2.325803621430000134e-01 -6.931586465550000353e-01 1.577976564640000134e-01 2.319651470269999960e-01 -8.139058347609999799e-01 -7.965665415310000386e-01 -5.386937891180000326e-01 7.592939728369999530e-01 -5.210506286289999789e-01 -3.929991543840000157e-01 -1.842194353859999967e-01 1.144948680949999936e-01 1.082643500000000057e-02 -3.037281144430000190e-01 4.717261358300000040e-01 1.192954506190000014e-01 4.988513008150000094e-01 -1.068874420639999989e-01 -3.270351134110000002e-01 7.028690026020000259e-01 -1.121441104557000079e+00 6.412039415019999966e-01 2.159127110100000080e-01 -1.982338691480000081e-01 -3.447439929800000247e-01 1.972491055649999991e-01 -9.830418421500000670e-02
-2.741374098950000171e-01 6.836666785000000690e-02 -4.623785566549999948e-01 -2.462466223500000065e-02 4.600654072070000100e-01 -3.299871931439999906e-01 1.112071519809999964e+00 -4.017089720509999795e-01 4.094254350090000272e-01 -4.366853049469999748e-01 1.497772959660000014e+00 -4.315496306430000040e-01 4.034918947050000204e-01 -9.785567757790000210e-01 4.911648203949999791e-01 -1.975145502629999938e-01 1.977196381240000078e-01 -2.265574639900000131e-01 2.025385653339999981e-01 1.346251136219999978e-01 -3.587353864939999970e-01 -5.655109547790000413e-01 -5.799593205869999490e-01 9.171812262820000505e-01 -2.419100709760000079e-01 -1.117914358770000005e+00 -5.323552175910000184e-01 -3.603913518310000175e-01 -4.237191965300000224e-02 1.862463247289999901e-01 -2.226312608930000048e-01 4.045445965439999902e-01 1.026848884617999946e+00 3.592701075949999989e-01 2.528741170950000172e-01 -4.052846369329999865e-01 -3.824353868500000031e-01 1.281518577029999995e-01 4.057268221459999769e-01 6.720337757190000261e-01 1.135360131262000083e+00 -4.848325072399999741e-02 7.294391838539999728e-01 4.679344350690000098e-01 -1.383639168138999898e+00 -1.565504947109999934e-01 -1.024669067680999968e+00 1.381649197953999986e+00 6.084762594170000094e-01 6.264517837699999647e-02 -4.241875821489999865e-01 -6.865973840000000328e-01 1.338427427309999973e-01 -4.500627181590000081e-01 1.032246206010000028e-01 -2.051368011459999974e-01 -1.367686633230000004e-01 -5.412739893289999493e-01 -1.291301186699999881e-01 -3.310755053650000224e-01 6.891043269080000533e-01 -3.007822022459999967e-01 3.231107834570000059e-01 2.198822761270000092e-01 7.645392970709999902e-01 2.303330722570000044e-01 -3.153947434150000118e-01 -5.127961001999999796e-02 2.174616264479999894e-01 5.534615699639999775e-01 -8.493903189700000023e-02 -1.496210481859999997e-01 1.439704939839999975e-01 -6.033878768289999694e-01 1.003075016540000003e-01 -4.292908824299999926e-02 -7.401815152570000444e-01 2.601210268349999910e-01 -3.258285115430000212e-01 -1.469968978979999952e-01 3.067262660480000180e-01 -6.491653877969999487e-01 -3.028438868000000051e-03 4.039099280100000300e-02 2.530457306999999920e-02 2.064168362699999870e-01 6.645785190759999628e-01 -8.439933861499999967e-02 -1.281548035100000052e-02 5.631651194900000323e-02 1.357669450650000054e-01 8.345562041590000035e-01 3.936724297699999847e-02 1.412981297339999942e-01 -3.158381739080000083e-01 2.814629917379999902e-01 3.251395034239999982e-01 -7.976153391489999578e-01 -3.201439287619999852e-01 -3.050784804119999749e-01 4.464312756230000012e-01 -3.425622289590000147e-01 -3.351876979230000164e-01 -4.997101928609999910e-01 1.744577056000000126e-01 1.883961542569999870e-01 -2.830586163850000170e-01 4.226916158310000116e-01 -1.224563172119999960e-01 1.272041180600000029e-02 -2.473797247589999970e-01 -1.263525566189999949e-01 6.824862026900000433e-01 -1.550621030977999970e+00 2.073813650830000077e-01 5.940133074769999855e-01 5.601694390100000337e-02 -4.231963221639999939e-01 -1.659856703360000074e-01 1.398074232469999900e-01
-3.868128731630000039e-01 1.759600379110000112e-01 -3.944771284220000007e-01 1.794896584460000111e-01 5.578621075030000265e-01 -4.254182082740000093e-01 1.175774222380999934e+00 -1.521818065739999892e-01 4.744610550839999941e-01 -7.357583870589999853e-01 1.114529368959999989e+00 -2.859696224859999969e-01 6.838847302700000463e-02 -8.607548573429999461e-01 3.720137930399999848e-01 1.888866172770000129e-01 8.482092631599999488e-02 -1.364685602750000115e-01 5.730815447689999731e-01 1.512833382569999940e-01 -3.184444190519999940e-01 -5.761124420640000299e-01 -5.778133952159999476e-01 7.232737853330000188e-01 7.673620901699999830e-02 -2.589265045840000168e-01 -6.678100956460000237e-01 -7.341199171899999432e-02 6.560841597319999607e-01 4.465700132859999893e-01 3.050457032039999850e-01 -2.617659237800000205e-01 8.007004507299999574e-01 1.734994011900000133e-01 -9.398915222300000538e-01 -4.354259741509999837e-01 -5.987795742229999885e-01 -2.064999621299999991e-02 7.715912056810000363e-01 1.228732617450000036e-01 -2.213507890300000017e-02 -4.591685547830000047e-01 -1.760701330900000042e-02 5.632670332089999565e-01 -4.873815287769999727e-01 -4.008547218190000039e-01 -1.177953219330000051e-01 1.309557218259999878e-01 7.517555790350000100e-01 5.075224922000000083e-01 -1.289269496000000070e-01 -6.289274555599999594e-02 2.173902788399999925e-02 -2.738143913559999976e-01 7.721687921000000565e-02 1.626927407069999887e-01 -1.733168539590000112e-01 -6.258685294870000027e-01 -1.364677423010000057e-01 -5.005328819609999869e-01 2.255181141270000134e-01 9.342612623599999555e-02 7.344072431200000528e-01 2.494004970279999900e-01 -9.013323754830000478e-01 -1.118457900920000053e-01 -4.442495333799999918e-02 3.423102865350000079e-01 -1.972289474820000110e-01 1.278473638940000046e-01 2.586645981630000257e-01 -3.661645371330000120e-01 2.216185406860000096e-01 -1.110066512239999970e+00 2.886971817799999923e-02 1.498812436039999862e-01 -2.489553158789999943e-01 6.636621291409999790e-01 -4.444119619490000117e-01 3.460421708599999979e-01 4.869182451579999737e-01 -4.532065433740000149e-01 4.957633297530000260e-01 2.792526127999999871e-02 1.039642247539999953e-01 2.056566958690000113e-01 -6.412971503909999926e-01 -3.333016405149999972e-01 -1.583437209540000112e-01 -1.077541917740000021e-01 -1.193368856000000082e-02 3.913105253929999860e-01 -2.540385314729999844e-01 1.209489741119999934e-01 3.851895758330000086e-01 5.062853569080000282e-01 3.169924280090000157e-01 -3.007805165629999777e-01 2.202716640290000027e-01 2.172122577900000018e-01 -7.853279343050000305e-01 2.115224269160000115e-01 -1.025362436419999940e-01 -5.783079539600000096e-01 -2.770227643300000042e-01 1.729044086490000021e-01 -7.168784367399999580e-02 9.286418129600000626e-02 -3.011957259849999957e-01 -3.417114035220000234e-01 -3.451053757390000198e-01 2.615969849020000071e-01 5.814661132180000136e-01 -2.452946777739999917e-01 -3.754798095010000170e-01 6.922074319350000060e-01 3.232049756839999732e-01 -3.160437415919999937e-01 5.709763918199999705e-02 2.174099082379999937e-01
-4.325593592940000232e-01 3.049986762129999751e-01 -4.231433556629999870e-01 3.140164123240000160e-01 5.470936187710000453e-01 -5.156925025609999658e-01 1.134723021467000104e+00 7.861485595599999876e-02 3.721950174729999894e-01 -9.269429027550000200e-01 6.817521896710000417e-01 -2.204959466800000129e-02 -1.942135661870000030e-01 -6.600036743039999765e-01 3.590898798909999967e-01 4.396258587340000079e-01 -5.417021938399999709e-02 -7.563357182100000076e-02 8.293577578969999475e-01 1.625932413550000011e-01 -1.270119374060000028e-01 -4.504403125229999860e-01 -4.708947463429999925e-01 4.553757276209999816e-01 2.130610592459999952e-01 5.020447067519999695e-01 -7.954313947240000404e-01 3.110387376620000199e-01 6.495068158619999865e-01 5.305967448620000360e-01 1.102114301322000056e+00 -8.854909780459999658e-01 3.063176299900000066e-02 -8.148772367100000358e-02 -1.151218071429999990e+00 5.535401290900000132e-02 -6.680944532760000332e-01 3.732387155360000208e-01 2.047649292050000014e-01 -4.711454496620000043e-01 -1.195442557063999933e+00 -3.942052917000000295e-02 -7.738380052500000161e-01 2.522829377420000019e-01 5.099063811380000200e-01 -4.269146876339999785e-01 6.519560448179999579e-01 -7.259117671639999658e-01 6.602733379499999833e-01 7.244573804220000302e-01 2.251192486000000090e-02 4.199242399800000025e-01 -1.038385261639999946e-01 -1.568827574000000030e-02 4.583302711000000230e-03 8.473967451599999368e-02 -7.646780293499999548e-02 -4.654761760369999779e-01 -2.041822993999999891e-01 1.611398737989999941e-01 -2.548101504240000148e-01 4.399316365920000194e-01 8.822485718520000075e-01 2.028509961130000039e-01 -1.566747440494999921e+00 -4.509264979009999785e-01 2.135076881009999872e-01 5.403286731599999948e-01 2.375199881800000093e-02 -4.415986989180000211e-01 3.808078862800000075e-01 -3.379370914120000124e-01 1.360686956770000011e-01 -4.391192335190000073e-01 -5.703820912799999893e-02 1.854966746720000115e-01 1.922939656740000058e-01 1.026501235600000006e-01 -4.030674592969999970e-01 6.322669710830000067e-01 4.386792387480000222e-01 -4.034654980699999699e-02 7.057606295700000199e-02 -7.748459200399999969e-02 8.184360151899999769e-02 9.614639642500000249e-02 -1.228066997952000028e+00 2.431042465499999930e-02 -3.556372760959999879e-01 -1.677186557110000031e-01 -2.159563866979999913e-01 -5.291089457730000500e-01 -4.576931727760000235e-01 1.113353305889999978e-01 9.106022665809999639e-01 1.280572312240000066e-01 -1.293393875720000030e-01 3.665819086989999809e-01 4.598370055589999783e-01 6.950581604409999947e-01 -1.147939820743000050e+00 6.265972225870000134e-01 1.615692208120000084e-01 -4.478441313739999763e-01 -3.338551469070000222e-01 -1.349367879130000114e-01 1.237508063899999955e-01 -2.527148782890000223e-01 -3.691694036170000137e-01 -3.391887157810000164e-01 -2.284497516790000016e-01 5.204357511920000290e-01 1.182963613970000050e-01 6.706421973439999906e-01 -7.109432221210000291e-01 4.150160319199999726e-01 3.563874569359999911e-01 -1.699138904080000068e-01 2.509488111439999725e-01 1.791842422500000004e-02