-2.314526056941110244e-01 -2.431428799425992437e+00 1.724509813299955230e+00 -2.431428799425992437e+00 -6.270340236307272441e+00 -2.481047859032382785e+00 1.724509813299955230e+00 -2.481047859032382785e+00 1.698290002148631128e+00
1.914939267889746777e+00 -2.393914777557378581e+00 1.671897323738143371e+00 -2.393914777557378581e+00 -2.780044809162890207e+00 -2.699823009098294868e+00 1.671897323738143371e+00 -2.699823009098294868e+00 5.177330216719299827e+00
4.335798271660537218e+00 -2.336559094359268673e+00 1.729710457899766407e+00 -2.336559094359268673e+00 8.437172279956982601e-01 -2.684459333391111091e+00 1.729710457899766407e+00 -2.684459333391111091e+00 7.115639003257892448e+00
3.759509873656329493e+00 -2.177863197202118517e+00 1.812088020311684922e+00 -2.177863197202118517e+00 1.603554721506595504e+00 -2.652518924023258950e+00 1.812088020311684922e+00 -2.652518924023258950e+00 5.165331801216042962e+00
1.025299155018736474e+00 -2.133951213589696305e+00 1.829994081585612609e+00 -2.133951213589696305e+00 1.961542208895766803e-01 -3.172807544767460186e+00 1.829994081585612609e+00 -3.172807544767460186e+00 1.008362691125511024e+00
-1.735013240478878283e+00 -2.205552524064339881e+00 1.902224367982686903e+00 -2.205552524064339881e+00 -1.296974047919829731e+00 -3.310171475658861606e+00 1.902224367982686903e+00 -3.310171475658861606e+00 -1.681327478267782949e+00
-4.235886263788172457e+00 -1.846106650063836785e+00 1.776620901644566430e+00 -1.846106650063836785e+00 -4.306242620359148177e+00 -3.051173314140965598e+00 1.776620901644566430e+00 -3.051173314140965598e+00 -2.709346181726356217e+00
-5.407318733352324713e+00 -1.274523176597373908e+00 1.439097455647833090e+00 -1.274523176597373908e+00 -5.932698950999911069e+00 -2.800198011407058374e+00 1.439097455647833090e+00 -2.800198011407058374e+00 -2.556382400228903062e+00
-4.145820340556780614e+00 -1.088049762808651622e+00 1.520120065691015654e+00 -1.088049762808651622e+00 -5.436489504422138630e+00 -2.452851606182680388e+00 1.520120065691015654e+00 -2.452851606182680388e+00 -5.896750084425410598e-01
-1.947552857675433957e+00 -1.209972883304203828e+00 1.837599684873537198e+00 -1.209972883304203828e+00 -4.338560870753066290e+00 -2.269790085400378743e+00 1.837599684873537198e+00 -2.269790085400378743e+00 8.492535567839522015e-01
-1.097844482948693301e+00 -1.352415681161879046e+00 1.592773604359680739e+00 -1.352415681161879046e+00 -2.245720982930670129e+00 -2.455802265440462762e+00 1.592773604359680739e+00 -2.455802265440462762e+00 -1.417468922297361322e+00
-2.034259773740672461e+00 -1.342124869886876182e+00 1.290687158358110542e+00 -1.342124869886876182e+00 -9.628387598202844400e-01 -2.224833047242109174e+00 1.290687158358110542e+00 -2.224833047242109174e+00 -5.367497351870214928e+00
-3.481450885870050360e+00 -1.504767339573495954e+00 1.394449364223425691e+00 -1.504767339573495954e+00 -3.086105796197217144e-01 -1.953923972017918897e+00 1.394449364223425691e+00 -1.953923972017918897e+00 -6.588559465341931265e+00
-2.731606865808282159e+00 -1.719705953107999230e+00 1.659729548811704758e+00 -1.719705953107999230e+00 -4.065486537129539890e+00 -2.091456037776709298e+00 1.659729548811704758e+00 -2.091456037776709298e+00 -3.435874035647376257e+00
-7.951124486552043624e-01 -2.718194792696423168e+00 2.258232285725440214e+00 -2.718194792696423168e+00 -7.420401975577029852e+00 -2.609584058505764581e+00 2.258232285725440214e+00 -2.609584058505764581e+00 1.599434203153376366e+00
-1.525511286130126098e+00 -3.658978969245495705e+00 2.755081720303720338e+00 -3.658978969245495705e+00 -8.233880968039695603e+00 -3.153898922433988616e+00 2.755081720303720338e+00 -3.153898922433988616e+00 9.577372097322849331e-01
-1.974958050146281341e+00 -3.582659470510851207e+00 2.113867860735298532e+00 -3.582659470510851207e+00 -6.264123661482379646e+00 -3.465353958625259523e+00 2.113867860735298532e+00 -3.465353958625259523e+00 -9.833609136585620414e-01
-2.103515321163947349e-01 -2.838727661845143579e+00 1.125481796536327739e+00 -2.838727661845143579e+00 -1.640352734924888756e+00 -3.692973164505739536e+00 1.125481796536327739e+00 -3.692973164505739536e+00 -1.252775604322176939e+00
2.345558885428972395e+00 -2.232414408525571492e+00 8.138830648274180124e-01 -2.232414408525571492e+00 2.217746407862131619e+00 -3.952222205940013833e+00 8.138830648274180124e-01 -3.952222205940013833e+00 6.920147497460870101e-01
8.578513125398076866e+00 -1.695814294039538650e+00 1.406074644740528568e+00 -1.695814294039538650e+00 5.147302450180497146e+00 -3.656992666636905032e+00 1.406074644740528568e+00 -3.656992666636905032e+00 3.981303160827790233e+00
1.655721884402801791e+01 -1.457533548919555111e+00 2.260909209949131249e+00 -1.457533548919555111e+00 9.309535487368846063e+00 -3.023307033943039457e+00 2.260909209949131249e+00 -3.023307033943039457e+00 1.367503963541110501e+01
1.502327941345028428e+01 -2.133890826343426195e+00 2.814261574278903666e+00 -2.133890826343426195e+00 7.796982893481204435e+00 -2.275700018088628873e+00 2.814261574278903666e+00 -2.275700018088628873e+00 1.592631904206131743e+01
2.016563146332455592e+00 -2.622861296408298237e+00 2.710684987109413857e+00 -2.622861296408298237e+00 -4.362611308764485329e+00 -7.282860450267568675e-01 2.710684987109413857e+00 -7.282860450267568675e-01 4.172513429340998670e+00
-9.422322662743869870e+00 -2.751253265543325277e+00 2.220313948461928977e+00 -2.751253265543325277e+00 -1.424018684881356300e+01 -4.560231495381007472e-01 2.220313948461928977e+00 -4.560231495381007472e-01 -7.232224570606857306e+00
-1.435726013460589279e+01 -3.086353401391902729e+00 1.411478859810137321e+00 -3.086353401391902729e+00 -1.717824419359606125e+01 -1.493030694899568189e+00 1.411478859810137321e+00 -1.493030694899568189e+00 -1.564337974261701092e+01
-2.000576526848821857e+01 -2.933575801010761985e+00 9.448318848961126948e-01 -2.933575801010761985e+00 -1.658483996368251567e+01 -3.028662700911530781e+00 9.448318848961126948e-01 -3.028662700911530781e+00 -1.764685700260141132e+01
-1.613890497630439214e+01 -2.789634904690914574e+00 1.858542742597074193e+00 -2.789634904690914574e+00 -1.254510741271757190e+01 -4.281435938282929676e+00 1.858542742597074193e+00 -4.281435938282929676e+00 -1.384008535657002348e+01
-8.936822102979112614e+00 -3.076566167321118428e+00 2.576743540340972860e+00 -3.076566167321118428e+00 -5.708398167900047504e+00 -5.069532214592262775e+00 2.576743540340972860e+00 -5.069532214592262775e+00 -7.779522983891729915e+00
-1.079695588875225631e+01 -2.993575725315592351e+00 2.753093843343880298e+00 -2.993575725315592351e+00 -9.079377271899337742e+00 -4.970670112331672996e+00 2.753093843343880298e+00 -4.970670112331672996e+00 -3.413625896398724713e+00
-1.265755543123092686e+01 -2.387450152731086739e+00 3.403558064856632370e+00 -2.387450152731086739e+00 -1.367380448285864425e+01 -4.296039291495238999e+00 3.403558064856632370e+00 -4.296039291495238999e+00 -4.501708344803332373e+00
-7.697913807507696049e+00 -1.852470182873066529e+00 3.911447120382221865e+00 -1.852470182873066529e+00 -1.327655846432100439e+01 -2.537661851792084811e+00 3.911447120382221865e+00 -2.537661851792084811e+00 -2.742248532002870665e+00
-8.869196707229834442e-02 -1.887922362704144374e+00 4.686650574521348922e+00 -1.887922362704144374e+00 -9.799689614973564389e+00 -1.583139503104094681e+00 4.686650574521348922e+00 -1.583139503104094681e+00 7.905941938179522621e-01
6.805966179246505376e+00 -2.782361156113367429e+00 5.353408193970512485e+00 -2.782361156113367429e+00 -6.606335520684524454e+00 -1.858937255515130671e+00 5.353408193970512485e+00 -1.858937255515130671e+00 7.055841767865580927e+00
9.880456596392276580e+00 -2.448244966467556516e+00 4.773404647778108689e+00 -2.448244966467556516e+00 1.189383414768248048e+00 -2.569915753018722437e+00 4.773404647778108689e+00 -2.569915753018722437e+00 1.085415802536952512e+01
1.056692815719946310e+01 -2.487207585101878671e+00 3.076768904608004451e+00 -2.487207585101878671e+00 6.437515143084114655e+00 -3.216113580244588377e+00 3.076768904608004451e+00 -3.216113580244588377e+00 1.116761502919164784e+01
9.940307338386411118e+00 -1.856296932715447490e+00 1.928564948530935297e+00 -1.856296932715447490e+00 1.005475262349321852e+01 -3.103461733941365708e+00 1.928564948530935297e+00 -3.103461733941365708e+00 1.034561198467836718e+01
6.951818543740884593e+00 -1.005774855079950791e+00 1.579176435252702682e+00 -1.005774855079950791e+00 6.692855985155394372e+00 -2.809799078120287952e+00 1.579176435252702682e+00 -2.809799078120287952e+00 9.073544626349566045e+00
2.912138470782471789e+00 -1.384462775194653883e+00 1.489629070124054211e+00 -1.384462775194653883e+00 3.113303344130892381e+00 -2.723372661747642809e+00 1.489629070124054211e+00 -2.723372661747642809e+00 6.430521561065547509e+00
-4.239803478081346361e-02 -1.991632078647357806e+00 1.680686581114122724e+00 -1.991632078647357806e+00 -3.454380933096846462e+00 -3.018439959301990161e+00 1.680686581114122724e+00 -3.018439959301990161e+00 1.256636418391786858e+00
-3.300157602891832465e+00 -2.390036787497101134e+00 2.109445534513361142e+00 -2.390036787497101134e+00 -1.083995118710904393e+01 -3.349308325257204899e+00 2.109445534513361142e+00 -3.349308325257204899e+00 -3.283722753581549636e+00
-4.283446026500152826e+00 -2.432801908776720090e+00 2.347036634352374307e+00 -2.432801908776720090e+00 -1.297836927504837057e+01 -3.845688381769345021e+00 2.347036634352374307e+00 -3.845688381769345021e+00 -5.947583352391737854e+00
-3.422520572330023825e+00 -2.278426581882480928e+00 2.520168596895421054e+00 -2.278426581882480928e+00 -1.251923736156666322e+01 -4.267255023061536257e+00 2.520168596895421054e+00 -4.267255023061536257e+00 -7.098522542729233997e+00
-3.912698545154663865e+00 -1.987947386214237167e+00 2.495896795396003398e+00 -1.987947386214237167e+00 -9.579523607853117184e+00 -4.465695625268525148e+00 2.495896795396003398e+00 -4.465695625268525148e+00 -7.341826828028627183e+00
-2.631962432451354417e+00 -1.868133224266478098e+00 2.145247120107195204e+00 -1.868133224266478098e+00 -6.298382037703312619e+00 -4.456205526429728003e+00 2.145247120107195204e+00 -4.456205526429728003e+00 -5.909944487090040610e+00
-3.566273486547425708e+00 -2.171404444765087316e+00 2.035830734017341825e+00 -2.171404444765087316e+00 -6.184706160631956884e+00 -4.345745976633649477e+00 2.035830734017341825e+00 -4.345745976633649477e+00 -3.805063226854942915e+00
-4.870606459732121252e+00 -2.581929625158256414e+00 2.118455953251341395e+00 -2.581929625158256414e+00 -8.632751376955342337e+00 -4.527828418007072919e+00 2.118455953251341395e+00 -4.527828418007072919e+00 -1.509452390726621962e+00
-5.528387416191950621e+00 -2.754976053460684415e+00 1.825419176901585505e+00 -2.754976053460684415e+00 -1.023170180630793880e+01 -4.211152251693902393e+00 1.825419176901585505e+00 -4.211152251693902393e+00 8.253268166087360802e-01
-3.826094496667094003e+00 -2.726914776573719390e+00 1.542852180281676144e+00 -2.726914776573719390e+00 -9.335874614099106239e+00 -3.410862453143332029e+00 1.542852180281676144e+00 -3.410862453143332029e+00 3.298563595054502251e+00
-1.031808345048141895e+00 -2.776873890128731315e+00 1.556818720604695283e+00 -2.776873890128731315e+00 -6.815090978358644414e+00 -2.937025583452224531e+00 1.556818720604695283e+00 -2.937025583452224531e+00 5.070668060116807041e+00
3.239353418555044772e+00 -2.847418276107207546e+00 1.627655745475134808e+00 -2.847418276107207546e+00 -3.960683226123213441e+00 -3.079854670677642403e+00 1.627655745475134808e+00 -3.079854670677642403e+00 6.470339237877909433e+00
7.115006977854125836e+00 -2.849030201245281724e+00 1.841477014153198200e+00 -2.849030201245281724e+00 1.463618456361051867e-01 -3.306450244624409063e+00 1.841477014153198200e+00 -3.306450244624409063e+00 7.820706442248609669e+00
1.007507346117319891e+01 -2.731678956142076675e+00 2.259387941153209400e+00 -2.731678956142076675e+00 3.569452741137311147e+00 -3.244281685143161731e+00 2.259387941153209400e+00 -3.244281685143161731e+00 9.244275052441983220e+00
1.252655624831613679e+01 -2.229247128420094537e+00 2.703075292603171587e+00 -2.229247128420094537e+00 5.198873587698066956e+00 -2.932673165701052298e+00 2.703075292603171587e+00 -2.932673165701052298e+00 9.823404005553216578e+00
1.147135812323168125e+01 -1.642145602458367604e+00 2.939407943198686812e+00 -1.642145602458367604e+00 5.625977343419739540e+00 -2.844235049794351156e+00 2.939407943198686812e+00 -2.844235049794351156e+00 9.345348170223690687e+00
8.341209854169559179e+00 -1.304156702190367279e+00 2.909310091852141511e+00 -1.304156702190367279e+00 3.928335555089825348e+00 -2.857557366354273931e+00 2.909310091852141511e+00 -2.857557366354273931e+00 8.296796168475996325e+00
3.105136683655862040e+00 -1.142270130136183282e+00 2.738669692735982153e+00 -1.142270130136183282e+00 -1.007092035130288110e+00 -2.617148880072090122e+00 2.738669692735982153e+00 -2.617148880072090122e+00 5.581922209643757071e+00
-1.465055967806552450e+00 -1.032642677813339960e+00 2.528811998886188128e+00 -1.032642677813339960e+00 -6.480909040417191846e+00 -2.118263191694120806e+00 2.528811998886188128e+00 -2.118263191694120806e+00 1.184116759258549312e+00
-4.725503567060486354e+00 -1.205940169182150079e+00 2.287265157715053565e+00 -1.205940169182150079e+00 -1.050054606858673445e+01 -1.867731894178475294e+00 2.287265157715053565e+00 -1.867731894178475294e+00 -4.618148572495885951e+00
-7.795131295296106266e+00 -1.796354793333830413e+00 2.094195524760091853e+00 -1.796354793333830413e+00 -1.285166154968164065e+01 -1.891050000826085542e+00 2.094195524760091853e+00 -1.891050000826085542e+00 -9.268522158127691313e+00
-1.003475077139951743e+01 -2.689341153413051355e+00 1.910675389130731761e+00 -2.689341153413051355e+00 -1.267207688359131268e+01 -1.920875421839058017e+00 1.910675389130731761e+00 -1.920875421839058017e+00 -1.044965537481223272e+01
-9.632849558623773234e+00 -3.477336657843580259e+00 2.055417890127556380e+00 -3.477336657843580259e+00 -8.258060961768014963e+00 -2.247827044951669961e+00 2.055417890127556380e+00 -2.247827044951669961e+00 -7.288268814504647253e+00
-6.048548676317261119e+00 -3.528582463209169351e+00 2.621456040603904469e+00 -3.528582463209169351e+00 -4.458124489833328319e+00 -2.474215044390456697e+00 2.621456040603904469e+00 -2.474215044390456697e+00 -4.471776046646257718e+00
-2.341058098860439252e+00 -2.515030831708022774e+00 2.919351503284482341e+00 -2.515030831708022774e+00 -4.311330303379313555e+00 -2.028678722484488439e+00 2.919351503284482341e+00 -2.028678722484488439e+00 -2.120096150178358840e+00
-5.015421654442421273e-01 -1.565204695025294912e+00 2.901642096740163268e+00 -1.565204695025294912e+00 -4.673035566775944005e+00 -1.698755514390584587e+00 2.901642096740163268e+00 -1.698755514390584587e+00 -1.173830394204762984e+00
6.173728390600250471e-01 -1.062091122365097284e+00 2.742487645784927874e+00 -1.062091122365097284e+00 -6.736697486531458168e+00 -1.902127945179642232e+00 2.742487645784927874e+00 -1.902127945179642232e+00 -1.125963995201253010e+00
3.900761338664571198e-01 -1.259707874847058484e+00 2.877726040970520760e+00 -1.259707874847058484e+00 -7.080114221536256913e+00 -2.165893479497840612e+00 2.877726040970520760e+00 -2.165893479497840612e+00 -4.571869807017751169e-02
1.127126623600483324e+00 -2.041715779700442823e+00 3.197502609305587828e+00 -2.041715779700442823e+00 -6.353458094863309036e+00 -2.443322293056484629e+00 3.197502609305587828e+00 -2.443322293056484629e+00 3.465226739420406599e+00
3.577471617395871828e+00 -2.478820670663689718e+00 3.197414822961508918e+00 -2.478820670663689718e+00 -4.221905810043733887e+00 -2.539361184856512743e+00 3.197414822961508918e+00 -2.539361184856512743e+00 7.335251491276431501e+00
7.176803549464508158e+00 -2.724699640771828246e+00 2.486123497490081657e+00 -2.724699640771828246e+00 -7.379748251299248496e-01 -2.771634688534633906e+00 2.486123497490081657e+00 -2.771634688534633906e+00 1.088525824724520064e+01
1.115239100268750860e+01 -3.200014879976616822e+00 1.518660499404064002e+00 -3.200014879976616822e+00 3.063696018683409683e+00 -3.130501089893648281e+00 1.518660499404064002e+00 -3.130501089893648281e+00 1.313475150449790618e+01
1.268502095483303016e+01 -3.292571063008944421e+00 1.385991828270222381e+00 -3.292571063008944421e+00 5.552486689413964172e+00 -3.260328041151725031e+00 1.385991828270222381e+00 -3.260328041151725031e+00 1.337261385173123962e+01
7.430472667526205832e+00 -3.128527457401640177e+00 2.475223809908724704e+00 -3.128527457401640177e+00 -7.333276826248946723e-01 -3.330646873173843669e+00 2.475223809908724704e+00 -3.330646873173843669e+00 7.596232479480238275e+00
2.654867581951859457e+00 -3.243145805232826806e+00 4.097969993862278670e+00 -3.243145805232826806e+00 -7.565267810506434820e+00 -3.667855400531576660e+00 4.097969993862278670e+00 -3.667855400531576660e+00 2.320685064483899662e+00
1.037035828867930443e+00 -3.046564871018726084e+00 5.122816481044434767e+00 -3.046564871018726084e+00 -1.037277988064505152e+01 -3.654708639946053328e+00 5.122816481044434767e+00 -3.654708639946053328e+00 7.378561142637460324e-02
-4.254182431962103550e+00 -2.774256061881015256e+00 4.844166968446543819e+00 -2.774256061881015256e+00 -1.265296451284089940e+01 -3.022474208752933045e+00 4.844166968446543819e+00 -3.022474208752933045e+00 -1.986267902740849411e+00
-1.032232454161340662e+01 -2.486239240167988029e+00 3.670709061176779198e+00 -2.486239240167988029e+00 -1.459323861518608645e+01 -3.038735993403841817e+00 3.670709061176779198e+00 -3.038735993403841817e+00 -6.348316878968336852e+00
-1.501297978010007839e+01 -2.090968819784857047e+00 3.029994219330935934e+00 -2.090968819784857047e+00 -1.599214867639820881e+01 -4.131173633862752048e+00 3.029994219330935934e+00 -4.131173633862752048e+00 -1.025118133298469658e+01
-1.558295558030237338e+01 -1.862875430526671927e+00 3.063689798346856730e+00 -1.862875430526671927e+00 -1.612439677781200231e+01 -5.757368367458133740e+00 3.063689798346856730e+00 -5.757368367458133740e+00 -8.314220229997902223e+00
-1.208192925041764276e+01 -2.459487352017141415e+00 3.791550989677646921e+00 -2.459487352017141415e+00 -1.291088925610998039e+01 -6.468214691582847564e+00 3.791550989677646921e+00 -6.468214691582847564e+00 -7.333193407133795638e+00
-5.744233488619721939e+00 -3.726406027928303111e+00 5.102062072845694018e+00 -3.726406027928303111e+00 -6.983177009541199354e+00 -5.877085106571504625e+00 5.102062072845694018e+00 -5.877085106571504625e+00 -4.681999888805499666e+00
1.951202821655452002e+00 -3.732339103378642164e+00 4.275502824325644546e+00 -3.732339103378642164e+00 -1.844290268629982465e+00 -4.124728303602240409e+00 4.275502824325644546e+00 -4.124728303602240409e+00 3.150471950994559567e+00
2.982840472139161925e+00 -1.418603832612561400e+00 1.203505308978563226e+00 -1.418603832612561400e+00 2.380958083903580214e+00 -2.455886998876775085e+00 1.203505308978563226e+00 -2.455886998876775085e+00 5.662622255517067771e+00
-3.564985509981795531e+00 -6.804931133612037719e-01 -5.325778367891238485e-01 -6.804931133612037719e-01 -2.968662379215228353e-01 -1.199460559608433119e+00 -5.325778367891238485e-01 -1.199460559608433119e+00 1.136183336773089803e+00
-5.523107504283998104e+00 -1.139301802352107762e+00 -2.594330059791972176e-01 -1.139301802352107762e+00 -4.452791366819672803e+00 -5.752144632295644877e-01 -2.594330059791972176e-01 -5.752144632295644877e-01 -2.643153202754346509e+00
8.963750336107965122e-01 -1.226254098939972170e+00 5.930199627211674152e-01 -1.226254098939972170e+00 -3.968834277362708551e+00 -7.635514978898115812e-01 5.930199627211674152e-01 -7.635514978898115812e-01 -1.881233004792400409e+00
7.842187133790294418e+00 -1.684507316314478809e+00 1.440506140170454419e+00 -1.684507316314478809e+00 8.047081592719159682e-01 -1.299619902793824666e+00 1.440506140170454419e+00 -1.299619902793824666e+00 -3.664841068012805736e-01
5.736875395449836823e+00 -3.024255102141060192e+00 2.404384555585881600e+00 -3.024255102141060192e+00 4.555979106932301015e+00 -1.620458601617369432e+00 2.404384555585881600e+00 -1.620458601617369432e+00 2.814056729342800378e-01
-1.157647729691344995e+00 -3.988888508924596454e+00 3.094594657334014176e+00 -3.988888508924596454e+00 -5.596096390445217672e-01 -1.770626715519984851e+00 3.094594657334014176e+00 -1.770626715519984851e+00 -1.137589378607370749e+00
-6.008430971416601096e+00 -3.945731983781800789e+00 2.964025216233149962e+00 -3.945731983781800789e+00 -5.089103176538209539e+00 -2.094953831041631798e+00 2.964025216233149962e+00 -2.094953831041631798e+00 -3.042660490443775512e+00
-6.265660482876096893e+00 -3.322138498801085138e+00 2.281462503162948963e+00 -3.322138498801085138e+00 -6.691358257058835690e+00 -2.381515682960231750e+00 2.281462503162948963e+00 -2.381515682960231750e+00 -4.039835297715053564e+00
-4.152558378131238292e+00 -2.391938660206149869e+00 1.705661646585451940e+00 -2.391938660206149869e+00 -5.244590258409262518e+00 -3.012314980417658106e+00 1.705661646585451940e+00 -3.012314980417658106e+00 -4.080608380733290907e+00
-3.736427819679559725e+00 -2.027198690565485517e+00 1.790132051627980614e+00 -2.027198690565485517e+00 -3.779053373605642641e+00 -3.789247550640482132e+00 1.790132051627980614e+00 -3.789247550640482132e+00 -2.292277062500178264e+00
-3.680186575038657093e+00 -2.412591411701487942e+00 2.033530183067532082e+00 -2.412591411701487942e+00 -3.769713758326472597e+00 -3.873291729507866599e+00 2.033530183067532082e+00 -3.873291729507866599e+00 -1.264069127199567655e+00
-3.319737529200145421e+00 -2.937204702525899602e+00 2.036987459141122780e+00 -2.937204702525899602e+00 -5.412696446965234109e+00 -3.381953890290070319e+00 2.036987459141122780e+00 -3.381953890290070319e+00 -8.657010802296312146e-01
1.991538724702039964e-01 -2.914334614147537472e+00 2.242363208873913383e+00 -2.914334614147537472e+00 -6.668825387813314798e+00 -3.143238645850161550e+00 2.242363208873913383e+00 -3.143238645850161550e+00 2.245386680359061915e-01
4.471433796610901901e+00 -2.581256761142856515e+00 2.482309758478804529e+00 -2.581256761142856515e+00 -6.111204859666958811e+00 -3.129501367786983845e+00 2.482309758478804529e+00 -3.129501367786983845e+00 2.164606515427238698e+00
4.518335928450914807e+00 -2.564819406315271166e+00 2.538321284662851340e+00 -2.564819406315271166e+00 -5.048858631070734404e+00 -3.076558915327961774e+00 2.538321284662851340e+00 -3.076558915327961774e+00 3.294317277987527603e+00
2.371022836434381720e+00 -2.626073843966707955e+00 2.599913351480775070e+00 -2.626073843966707955e+00 -4.064487170320697729e+00 -3.061996375982010132e+00 2.599913351480775070e+00 -3.061996375982010132e+00 3.923702003338339850e+00
2.044751169197111640e+00 -2.706023349689800739e+00 2.508848832273888885e+00 -2.706023349689800739e+00 -3.025988504037403715e+00 -3.101484578049747309e+00 2.508848832273888885e+00 -3.101484578049747309e+00 4.206169191527417972e+00
3.475233596474371911e+00 -2.909965439477911531e+00 2.541725134930792773e+00 -2.909965439477911531e+00 -2.261635111892021932e+00 -2.862738663136140893e+00 2.541725134930792773e+00 -2.862738663136140893e+00 4.463751362246590304e+00
4.625305638933406627e+00 -3.025041957618803234e+00 2.831016426661827623e+00 -3.025041957618803234e+00 -2.042061630288659835e+00 -2.636144077100319727e+00 2.831016426661827623e+00 -2.636144077100319727e+00 5.021691918864637394e+00
3.719746392389132517e+00 -2.830309895638019047e+00 2.946219643799069310e+00 -2.830309895638019047e+00 -1.867820026911615416e+00 -2.871620793932476268e+00 2.946219643799069310e+00 -2.871620793932476268e+00 4.292453236481801326e+00
2.492832013678743408e+00 -2.651587352566580957e+00 2.659208336412720808e+00 -2.651587352566580957e+00 -2.428772243319968549e+00 -3.129510039425113632e+00 2.659208336412720808e+00 -3.129510039425113632e+00 3.903708109884621358e+00
1.660768749302654390e+00 -2.604859441034956369e+00 2.079740859887461824e+00 -2.604859441034956369e+00 -4.308589566995071785e+00 -3.295407521847353305e+00 2.079740859887461824e+00 -3.295407521847353305e+00 2.985947196120765756e+00
-8.134015567956949522e-02 -2.400573510836453206e+00 1.621773521455861733e+00 -2.400573510836453206e+00 -6.193571846594951857e+00 -3.402377983817996832e+00 1.621773521455861733e+00 -3.402377983817996832e+00 3.776237583497603634e-01
-9.328813411447343107e-01 -2.100076222580065988e+00 1.447330401749772344e+00 -2.100076222580065988e+00 -6.995912075892253945e+00 -3.083009030006871765e+00 1.447330401749772344e+00 -3.083009030006871765e+00 -1.084092961133320321e+00
4.497913468539146975e-01 -1.894996877185034734e+00 1.566766839011712209e+00 -1.894996877185034734e+00 -6.836220993233631305e+00 -2.492083409052495480e+00 1.566766839011712209e+00 -2.492083409052495480e+00 -1.796718430969220348e+00
1.444283105622824248e+00 -1.853710490210209949e+00 1.733867566127095694e+00 -1.853710490210209949e+00 -5.618551688647659859e+00 -2.086734491882117570e+00 1.733867566127095694e+00 -2.086734491882117570e+00 -1.918556873774437399e-01
1.489922721839719300e+00 -2.063559399634507852e+00 1.845403835673389281e+00 -2.063559399634507852e+00 -4.077564157884075335e+00 -2.082522566712842860e+00 1.845403835673389281e+00 -2.082522566712842860e+00 2.092653520843372750e+00
1.453147230898076625e+00 -2.241196582338444543e+00 1.976153587226961550e+00 -2.241196582338444543e+00 -3.024037204115810340e+00 -2.412011502414755260e+00 1.976153587226961550e+00 -2.412011502414755260e+00 1.983993147021693826e+00
1.387536492812307509e+00 -2.171214919488151818e+00 1.911016942012549125e+00 -2.171214919488151818e+00 -2.894692072511295233e+00 -2.656512685125238082e+00 1.911016942012549125e+00 -2.656512685125238082e+00 4.507500941648814874e-01
1.810874605947752736e+00 -2.014158833498627565e+00 1.548354880254567467e+00 -2.014158833498627565e+00 -3.657539110959895368e+00 -2.414299454714643911e+00 1.548354880254567467e+00 -2.414299454714643911e+00 -1.053502700607096276e+00
3.018075077699661435e+00 -2.072629628161907878e+00 1.113187442729751231e+00 -2.072629628161907878e+00 -3.771435602505341489e+00 -2.109265814056076049e+00 1.113187442729751231e+00 -2.109265814056076049e+00 -4.249766666682538441e-01
3.198809368922459928e+00 -2.350066976177416667e+00 1.086662494016347846e+00 -2.350066976177416667e+00 -3.874106658420004123e+00 -2.155038971264685355e+00 1.086662494016347846e+00 -2.155038971264685355e+00 -8.612575653423553135e-01
2.402082009783614414e+00 -2.324125043242319943e+00 1.444008968656676606e+00 -2.324125043242319943e+00 -4.660023323588762700e+00 -2.283967313593806558e+00 1.444008968656676606e+00 -2.283967313593806558e+00 -4.626310875028039615e-01
2.805623655605931965e+00 -2.088279588141468412e+00 1.474898892403894601e+00 -2.088279588141468412e+00 -5.321602695312609654e+00 -2.590774233797226600e+00 1.474898892403894601e+00 -2.590774233797226600e+00 4.147862840701341258e-01
3.796918630552549967e+00 -1.803589246674458080e+00 1.467026770560075466e+00 -1.803589246674458080e+00 -5.198111578768107144e+00 -2.960292535777350409e+00 1.467026770560075466e+00 -2.960292535777350409e+00 1.233947721595890057e+00
-1.199370579935521208e+00 -1.430292291024151785e+00 2.049286190786277384e+00 -1.430292291024151785e+00 -5.798678292836133785e+00 -3.589543582685514433e+00 2.049286190786277384e+00 -3.589543582685514433e+00 -1.720653582525262515e-01
-4.107553301286075431e+00 -2.039817268348310453e+00 2.257550518134990636e+00 -2.039817268348310453e+00 -5.993754110814426106e+00 -4.215015979611997032e+00 2.257550518134990636e+00 -4.215015979611997032e+00 1.103058900675266019e+00
2.396341542305533701e-01 -2.374832396413262714e+00 2.019965806481811565e+00 -2.374832396413262714e+00 -5.690810072024915733e+00 -4.438973373242343534e+00 2.019965806481811565e+00 -4.438973373242343534e+00 5.230842339261847052e+00
3.405691604818183560e+00 -1.994359337495907658e+00 2.175668063506657202e+00 -1.994359337495907658e+00 -4.636137924229442930e+00 -4.834646815455576174e+00 2.175668063506657202e+00 -4.834646815455576174e+00 4.388222534210902026e+00
3.315999681572879609e+00 -2.167797155985558000e+00 2.489839291495585361e+00 -2.167797155985558000e+00 -4.961582915991674447e+00 -4.178269851718320105e+00 2.489839291495585361e+00 -4.178269851718320105e+00 -1.649772594230295153e-01
1.731678936015882408e+00 -3.338523249724143493e+00 3.470680682981353016e+00 -3.338523249724143493e+00 -6.113967048030955809e+00 -3.269003265564047744e+00 3.470680682981353016e+00 -3.269003265564047744e+00 -3.452949562571517639e+00
2.667942841442733304e+00 -4.446643454062953360e+00 4.827032477358710771e+00 -4.446643454062953360e+00 -5.471662051693976458e+00 -3.139089775731812804e+00 4.827032477358710771e+00 -3.139089775731812804e+00 -3.667547304650454087e+00
1.096644327099128013e-01 -3.416367767265981570e+00 4.846817176363475532e+00 -3.416367767265981570e+00 -7.372355086359051235e+00 -3.392147140556085017e+00 4.846817176363475532e+00 -3.392147140556085017e+00 -2.808904711594898185e+00
-5.367641662849242934e+00 -2.207480546012286826e+00 3.287411644662000310e+00 -2.207480546012286826e+00 -7.958352906845383323e+00 -3.759494031346478415e+00 3.287411644662000310e+00 -3.759494031346478415e+00 2.909235970788838777e-01
-8.809979174698614912e+00 -2.069801645506706311e+00 2.134619190828707769e+00 -2.069801645506706311e+00 -7.632750910520188725e+00 -4.255330782286301350e+00 2.134619190828707769e+00 -4.255330782286301350e+00 -1.245391612730705200e+00
-6.239989559959246535e+00 -1.861974489492614904e+00 8.817647685138604308e-01 -1.861974489492614904e+00 -7.863497417292376390e+00 -4.085853171023585695e+00 8.817647685138604308e-01 -4.085853171023585695e+00 -2.578405201401532398e+00
2.794785825837295401e-01 -1.063117022423432312e+00 -9.030610059587914629e-01 -1.063117022423432312e+00 -6.616140622974553409e+00 -4.297560616876751283e+00 -9.030610059587914629e-01 -4.297560616876751283e+00 -2.412681610376982366e+00