9.189734502280856532e+00 0.000000000000000000e+00 0.000000000000000000e+00 -6.333963539798487252e-02 7.595442493683753682e+00 0.000000000000000000e+00 -8.525950922059032100e-02 2.559985263953919871e-02 7.576652116428824080e+00
9.197235181451688391e+00 0.000000000000000000e+00 0.000000000000000000e+00 -6.333963539798487252e-02 7.601641908616055154e+00 0.000000000000000000e+00 -8.525950922059032100e-02 2.559985263953919871e-02 7.582836194619407166e+00
9.212547078179799342e+00 0.000000000000000000e+00 0.000000000000000000e+00 -6.333963539798487252e-02 7.614297402748219312e+00 0.000000000000000000e+00 -8.525950922059032100e-02 2.559985263953919871e-02 7.595460380304793091e+00
9.232473622354611109e+00 0.000000000000000000e+00 0.000000000000000000e+00 -6.333963539798487252e-02 7.630766966732449141e+00 0.000000000000000000e+00 -8.525950922059032100e-02 2.559985263953919871e-02 7.611889200207557771e+00
9.257208445712517886e+00 0.000000000000000000e+00 0.000000000000000000e+00 -6.333963539798487252e-02 7.651210639871510288e+00 0.000000000000000000e+00 -8.525950922059032100e-02 2.559985263953919871e-02 7.632282297711748598e+00
9.284857660879310970e+00 0.000000000000000000e+00 0.000000000000000000e+00 -6.333963539798487252e-02 7.674063098094879187e+00 0.000000000000000000e+00 -8.525950922059032100e-02 2.559985263953919871e-02 7.655078221202548328e+00
9.307910191005005274e+00 0.000000000000000000e+00 0.000000000000000000e+00 -6.333963539798487252e-02 7.693116332642723876e+00 0.000000000000000000e+00 -8.525950922059032100e-02 2.559985263953919871e-02 7.674084319922719999e+00
9.320386841262648048e+00 0.000000000000000000e+00 0.000000000000000000e+00 -6.333963539798487252e-02 7.703428456407034552e+00 0.000000000000000000e+00 -8.525950922059032100e-02 2.559985263953919871e-02 7.684370932507881058e+00
9.321988065953517477e+00 0.000000000000000000e+00 0.000000000000000000e+00 -6.333963539798487252e-02 7.704751890729947483e+00 0.000000000000000000e+00 -8.525950922059032100e-02 2.559985263953919871e-02 7.685691092783640599e+00
9.313316858689596245e+00 0.000000000000000000e+00 0.000000000000000000e+00 -6.333963539798487252e-02 7.697585018160625125e+00 0.000000000000000000e+00 -8.525950922059032100e-02 2.559985263953919871e-02 7.678541950353257484e+00
9.291693495728186036e+00 0.000000000000000000e+00 0.000000000000000000e+00 -6.333963539798487252e-02 7.679713010013284880e+00 0.000000000000000000e+00 -8.525950922059032100e-02 2.559985263953919871e-02 7.660714155794411617e+00
9.258710740014860718e+00 0.000000000000000000e+00 0.000000000000000000e+00 -6.333963539798487252e-02 7.652452306863101406e+00 0.000000000000000000e+00 -8.525950922059032100e-02 2.559985263953919871e-02 7.633520892941021430e+00
9.224139359138138872e+00 0.000000000000000000e+00 0.000000000000000000e+00 -6.333963539798487252e-02 7.623878583072060344e+00 0.000000000000000000e+00 -8.525950922059032100e-02 2.559985263953919871e-02 7.605017857731074749e+00
9.198374804595673027e+00 0.000000000000000000e+00 0.000000000000000000e+00 -6.333963539798487252e-02 7.602583822885113030e+00 0.000000000000000000e+00 -8.525950922059032100e-02 2.559985263953919871e-02 7.583775778685878599e+00
9.186021034786692852e+00 0.000000000000000000e+00 0.000000000000000000e+00 -6.333963539798487252e-02 7.592373261509178128e+00 0.000000000000000000e+00 -8.525950922059032100e-02 2.559985263953919871e-02 7.573590477233540952e+00
9.186549520619569975e+00 0.000000000000000000e+00 0.000000000000000000e+00 -6.333963539798487252e-02 7.592810062349821365e+00 0.000000000000000000e+00 -8.525950922059032100e-02 2.559985263953919871e-02 7.574026197471403599e+00
9.197716820212230360e+00 0.000000000000000000e+00 0.000000000000000000e+00 -6.333963539798487252e-02 7.602039989704580059e+00 0.000000000000000000e+00 -8.525950922059032100e-02 2.559985263953919871e-02 7.583233290894602519e+00
9.217268385952529286e+00 0.000000000000000000e+00 0.000000000000000000e+00 -6.333963539798487252e-02 7.618199628832830861e+00 0.000000000000000000e+00 -8.525950922059032100e-02 2.559985263953919871e-02 7.599352952665975103e+00
9.243768805819133405e+00 0.000000000000000000e+00 0.000000000000000000e+00 -6.333963539798487252e-02 7.640102591873779936e+00 0.000000000000000000e+00 -8.525950922059032100e-02 2.559985263953919871e-02 7.621201729931833313e+00
9.271173626681731506e+00 0.000000000000000000e+00 0.000000000000000000e+00 -6.333963539798487252e-02 7.662753054828894683e+00 0.000000000000000000e+00 -8.525950922059032100e-02 2.559985263953919871e-02 7.643796157870501595e+00
9.293612696623688052e+00 0.000000000000000000e+00 0.000000000000000000e+00 -6.333963539798487252e-02 7.681299256061375758e+00 0.000000000000000000e+00 -8.525950922059032100e-02 2.559985263953919871e-02 7.662296477626090230e+00
9.312684507045604576e+00 0.000000000000000000e+00 0.000000000000000000e+00 -6.333963539798487252e-02 7.697062370793140040e+00 0.000000000000000000e+00 -8.525950922059032100e-02 2.559985263953919871e-02 7.678020595963330308e+00
9.331079849479472443e+00 0.000000000000000000e+00 0.000000000000000000e+00 -6.333963539798487252e-02 7.712266375389311257e+00 0.000000000000000000e+00 -8.525950922059032100e-02 2.559985263953919871e-02 7.693186987348013872e+00
9.345973451247415298e+00 0.000000000000000000e+00 0.000000000000000000e+00 -6.333963539798487252e-02 7.724576142958581748e+00 0.000000000000000000e+00 -8.525950922059032100e-02 2.559985263953919871e-02 7.705466301764582582e+00
9.352138678988508147e+00 0.000000000000000000e+00 0.000000000000000000e+00 -6.333963539798487252e-02 7.729671788839509894e+00 0.000000000000000000e+00 -8.525950922059032100e-02 2.559985263953919871e-02 7.710549341519075561e+00
9.347079915596275157e+00 0.000000000000000000e+00 0.000000000000000000e+00 -6.333963539798487252e-02 7.725490651025397781e+00 0.000000000000000000e+00 -8.525950922059032100e-02 2.559985263953919871e-02 7.706378547427421566e+00
9.333171035801974824e+00 0.000000000000000000e+00 0.000000000000000000e+00 -6.333963539798487252e-02 7.713994769767152704e+00 0.000000000000000000e+00 -8.525950922059032100e-02 2.559985263953919871e-02 7.694911105848468935e+00
9.315887284531452650e+00 0.000000000000000000e+00 0.000000000000000000e+00 -6.333963539798487252e-02 7.699709510621405961e+00 0.000000000000000000e+00 -8.525950922059032100e-02 2.559985263953919871e-02 7.680661187028292147e+00
9.300337458705930871e+00 0.000000000000000000e+00 0.000000000000000000e+00 -6.333963539798487252e-02 7.686857364804227544e+00 0.000000000000000000e+00 -8.525950922059032100e-02 2.559985263953919871e-02 7.667840836155093598e+00
9.290370439166098393e+00 0.000000000000000000e+00 0.000000000000000000e+00 -6.333963539798487252e-02 7.678619485490941088e+00 0.000000000000000000e+00 -8.525950922059032100e-02 2.559985263953919871e-02 7.659623336544495231e+00
9.287946739885640568e+00 0.000000000000000000e+00 0.000000000000000000e+00 -6.333963539798487252e-02 7.676616264560084169e+00 0.000000000000000000e+00 -8.525950922059032100e-02 2.559985263953919871e-02 7.657625071384111415e+00
9.290663511467085911e+00 0.000000000000000000e+00 0.000000000000000000e+00 -6.333963539798487252e-02 7.678861713795602562e+00 0.000000000000000000e+00 -8.525950922059032100e-02 2.559985263953919871e-02 7.659864965599606279e+00
9.297042645073871014e+00 0.000000000000000000e+00 0.000000000000000000e+00 -6.333963539798487252e-02 7.684134155829839052e+00 0.000000000000000000e+00 -8.525950922059032100e-02 2.559985263953919871e-02 7.665124364130924128e+00
9.307232581513529723e+00 0.000000000000000000e+00 0.000000000000000000e+00 -6.333963539798487252e-02 7.692556279038560874e+00 0.000000000000000000e+00 -8.525950922059032100e-02 2.559985263953919871e-02 7.673525651836582639e+00
9.316775261739987712e+00 0.000000000000000000e+00 0.000000000000000000e+00 -6.333963539798487252e-02 7.700443436048709955e+00 0.000000000000000000e+00 -8.525950922059032100e-02 2.559985263953919871e-02 7.681393296796048098e+00
9.319020912109348131e+00 0.000000000000000000e+00 0.000000000000000000e+00 -6.333963539798487252e-02 7.702299497095663305e+00 0.000000000000000000e+00 -8.525950922059032100e-02 2.559985263953919871e-02 7.683244766130433057e+00
9.314910658911202290e+00 0.000000000000000000e+00 0.000000000000000000e+00 -6.333963539798487252e-02 7.698902316056861039e+00 0.000000000000000000e+00 -8.525950922059032100e-02 2.559985263953919871e-02 7.679855989384252624e+00
9.310312375544306462e+00 0.000000000000000000e+00 0.000000000000000000e+00 -6.333963539798487252e-02 7.695101771342940822e+00 0.000000000000000000e+00 -8.525950922059032100e-02 2.559985263953919871e-02 7.676064846843210887e+00
9.306339755775901779e+00 0.000000000000000000e+00 0.000000000000000000e+00 -6.333963539798487252e-02 7.691818346235324455e+00 0.000000000000000000e+00 -8.525950922059032100e-02 2.559985263953919871e-02 7.672789544606837708e+00
9.300172135325581735e+00 0.000000000000000000e+00 0.000000000000000000e+00 -6.333963539798487252e-02 7.686720722746780865e+00 0.000000000000000000e+00 -8.525950922059032100e-02 2.559985263953919871e-02 7.667704532136700557e+00
9.290248017732791297e+00 0.000000000000000000e+00 0.000000000000000000e+00 -6.333963539798487252e-02 7.678518302485381142e+00 0.000000000000000000e+00 -8.525950922059032100e-02 2.559985263953919871e-02 7.659522403855494765e+00
9.279604533866889327e+00 0.000000000000000000e+00 0.000000000000000000e+00 -6.333963539798487252e-02 7.669721316063484728e+00 0.000000000000000000e+00 -8.525950922059032100e-02 2.559985263953919871e-02 7.650747180312323259e+00
9.272354171203161854e+00 0.000000000000000000e+00 0.000000000000000000e+00 -6.333963539798487252e-02 7.663728791181262601e+00 0.000000000000000000e+00 -8.525950922059032100e-02 2.559985263953919871e-02 7.644769480346764290e+00
9.267475712542038835e+00 0.000000000000000000e+00 0.000000000000000000e+00 -6.333963539798487252e-02 7.659696677716321567e+00 0.000000000000000000e+00 -8.525950922059032100e-02 2.559985263953919871e-02 7.640747341934404524e+00
9.262381223387452067e+00 0.000000000000000000e+00 0.000000000000000000e+00 -6.333963539798487252e-02 7.655486012066180734e+00 0.000000000000000000e+00 -8.525950922059032100e-02 2.559985263953919871e-02 7.636547093056301527e+00
9.259298769336984591e+00 0.000000000000000000e+00 0.000000000000000000e+00 -6.333963539798487252e-02 7.652938321219457052e+00 0.000000000000000000e+00 -8.525950922059032100e-02 2.559985263953919871e-02 7.634005704945296955e+00
9.262352562851431159e+00 0.000000000000000000e+00 0.000000000000000000e+00 -6.333963539798487252e-02 7.655462323737538100e+00 0.000000000000000000e+00 -8.525950922059032100e-02 2.559985263953919871e-02 7.636523463330321171e+00
9.270400558585743411e+00 0.000000000000000000e+00 0.000000000000000000e+00 -6.333963539798487252e-02 7.662114103369891183e+00 0.000000000000000000e+00 -8.525950922059032100e-02 2.559985263953919871e-02 7.643158787114399999e+00
9.277992312844320466e+00 0.000000000000000000e+00 0.000000000000000000e+00 -6.333963539798487252e-02 7.668388793120887392e+00 0.000000000000000000e+00 -8.525950922059032100e-02 2.559985263953919871e-02 7.649417953900750966e+00
9.282051912796040583e+00 0.000000000000000000e+00 0.000000000000000000e+00 -6.333963539798487252e-02 7.671744108551680874e+00 0.000000000000000000e+00 -8.525950922059032100e-02 2.559985263953919871e-02 7.652764968611326601e+00
9.283423933061278888e+00 0.000000000000000000e+00 0.000000000000000000e+00 -6.333963539798487252e-02 7.672878102251072363e+00 0.000000000000000000e+00 -8.525950922059032100e-02 2.559985263953919871e-02 7.653896156921865312e+00
9.282963515930578779e+00 0.000000000000000000e+00 0.000000000000000000e+00 -6.333963539798487252e-02 7.672497561133582167e+00 0.000000000000000000e+00 -8.525950922059032100e-02 2.559985263953919871e-02 7.653516557224955719e+00
9.278058590331806244e+00 0.000000000000000000e+00 0.000000000000000000e+00 -6.333963539798487252e-02 7.668443572379562312e+00 0.000000000000000000e+00 -8.525950922059032100e-02 2.559985263953919871e-02 7.649472597640205151e+00
9.268027413221282984e+00 0.000000000000000000e+00 0.000000000000000000e+00 -6.333963539798487252e-02 7.660152665948515960e+00 0.000000000000000000e+00 -8.525950922059032100e-02 2.559985263953919871e-02 7.641202202096092577e+00
9.257410016953212306e+00 0.000000000000000000e+00 0.000000000000000000e+00 -6.333963539798487252e-02 7.651377241286502873e+00 0.000000000000000000e+00 -8.525950922059032100e-02 2.559985263953919871e-02 7.632448486971112445e+00
9.250716909055759274e+00 0.000000000000000000e+00 0.000000000000000000e+00 -6.333963539798487252e-02 7.645845295165051070e+00 0.000000000000000000e+00 -8.525950922059032100e-02 2.559985263953919871e-02 7.626930226339883490e+00
9.247113375120784795e+00 0.000000000000000000e+00 0.000000000000000000e+00 -6.333963539798487252e-02 7.642866924596448897e+00 0.000000000000000000e+00 -8.525950922059032100e-02 2.559985263953919871e-02 7.623959223966866539e+00
9.242664502056838316e+00 0.000000000000000000e+00 0.000000000000000000e+00 -6.333963539798487252e-02 7.639189869561684887e+00 0.000000000000000000e+00 -8.525950922059032100e-02 2.559985263953919871e-02 7.620291265603740705e+00
9.236523630345544689e+00 0.000000000000000000e+00 0.000000000000000000e+00 -6.333963539798487252e-02 7.634114354274879055e+00 0.000000000000000000e+00 -8.525950922059032100e-02 2.559985263953919871e-02 7.615228306642656264e+00
9.232585921856179212e+00 0.000000000000000000e+00 0.000000000000000000e+00 -6.333963539798487252e-02 7.630859783821166253e+00 0.000000000000000000e+00 -8.525950922059032100e-02 2.559985263953919871e-02 7.611981787676596944e+00
9.233266016331352688e+00 0.000000000000000000e+00 0.000000000000000000e+00 -6.333963539798487252e-02 7.631421891298506566e+00 0.000000000000000000e+00 -8.525950922059032100e-02 2.559985263953919871e-02 7.612542504554942191e+00
9.236090617189098850e+00 0.000000000000000000e+00 0.000000000000000000e+00 -6.333963539798487252e-02 7.633756462921009067e+00 0.000000000000000000e+00 -8.525950922059032100e-02 2.559985263953919871e-02 7.614871300676690602e+00
9.238060670053881651e+00 0.000000000000000000e+00 0.000000000000000000e+00 -6.333963539798487252e-02 7.635384738823162820e+00 0.000000000000000000e+00 -8.525950922059032100e-02 2.559985263953919871e-02 7.616495548385031178e+00
9.242469289830538060e+00 0.000000000000000000e+00 0.000000000000000000e+00 -6.333963539798487252e-02 7.639028523960438299e+00 0.000000000000000000e+00 -8.525950922059032100e-02 2.559985263953919871e-02 7.620130319156196208e+00
9.252672453649054773e+00 0.000000000000000000e+00 0.000000000000000000e+00 -6.333963539798487252e-02 7.647461579781229979e+00 0.000000000000000000e+00 -8.525950922059032100e-02 2.559985263953919871e-02 7.628542512427078925e+00
9.263254689680517018e+00 0.000000000000000000e+00 0.000000000000000000e+00 -6.333963539798487252e-02 7.656207944021523382e+00 0.000000000000000000e+00 -8.525950922059032100e-02 2.559985263953919871e-02 7.637267239022924592e+00
9.267109369293820009e+00 0.000000000000000000e+00 0.000000000000000000e+00 -6.333963539798487252e-02 7.659393889962259117e+00 0.000000000000000000e+00 -8.525950922059032100e-02 2.559985263953919871e-02 7.640445303247030751e+00
9.263228882384071383e+00 0.000000000000000000e+00 0.000000000000000000e+00 -6.333963539798487252e-02 7.656186613935305196e+00 0.000000000000000000e+00 -8.525950922059032100e-02 2.559985263953919871e-02 7.637245961705404262e+00
9.256012363076530747e+00 0.000000000000000000e+00 0.000000000000000000e+00 -6.333963539798487252e-02 7.650222061053067790e+00 0.000000000000000000e+00 -8.525950922059032100e-02 2.559985263953919871e-02 7.631296164540227522e+00
9.249966042827971080e+00 0.000000000000000000e+00 0.000000000000000000e+00 -6.333963539798487252e-02 7.645224693856419229e+00 0.000000000000000000e+00 -8.525950922059032100e-02 2.559985263953919871e-02 7.626311160338413053e+00
9.246201181220648380e+00 0.000000000000000000e+00 0.000000000000000000e+00 -6.333963539798487252e-02 7.642112983738359233e+00 0.000000000000000000e+00 -8.525950922059032100e-02 2.559985263953919871e-02 7.623207148284040890e+00
9.245572883813316878e+00 0.000000000000000000e+00 0.000000000000000000e+00 -6.333963539798487252e-02 7.641593687253585898e+00 0.000000000000000000e+00 -8.525950922059032100e-02 2.559985263953919871e-02 7.622689136487872830e+00
9.248953954195858529e+00 0.000000000000000000e+00 0.000000000000000000e+00 -6.333963539798487252e-02 7.644388188623595148e+00 0.000000000000000000e+00 -8.525950922059032100e-02 2.559985263953919871e-02 7.625476724536676798e+00
9.257294294139349233e+00 0.000000000000000000e+00 0.000000000000000000e+00 -6.333963539798487252e-02 7.651281594782072482e+00 0.000000000000000000e+00 -8.525950922059032100e-02 2.559985263953919871e-02 7.632353077087320692e+00
9.270632845187630977e+00 0.000000000000000000e+00 0.000000000000000000e+00 -6.333963539798487252e-02 7.662306091453750412e+00 0.000000000000000000e+00 -8.525950922059032100e-02 2.559985263953919871e-02 7.643350300238992645e+00
9.285918708689598233e+00 0.000000000000000000e+00 0.000000000000000000e+00 -6.333963539798487252e-02 7.674940068765772061e+00 0.000000000000000000e+00 -8.525950922059032100e-02 2.559985263953919871e-02 7.655953022333929603e+00
9.297789619313062914e+00 0.000000000000000000e+00 0.000000000000000000e+00 -6.333963539798487252e-02 7.684751540355986954e+00 0.000000000000000000e+00 -8.525950922059032100e-02 2.559985263953919871e-02 7.665740221308864122e+00
9.303598894050127299e+00 0.000000000000000000e+00 0.000000000000000000e+00 -6.333963539798487252e-02 7.689552986162419224e+00 0.000000000000000000e+00 -8.525950922059032100e-02 2.559985263953919871e-02 7.670529788811672134e+00
9.306516532543321674e+00 0.000000000000000000e+00 0.000000000000000000e+00 -6.333963539798487252e-02 7.691964454675280116e+00 0.000000000000000000e+00 -8.525950922059032100e-02 2.559985263953919871e-02 7.672935291587873685e+00
9.308601936953106559e+00 0.000000000000000000e+00 0.000000000000000000e+00 -6.333963539798487252e-02 7.693688070222630238e+00 0.000000000000000000e+00 -8.525950922059032100e-02 2.559985263953919871e-02 7.674654643080768501e+00
9.308210094326669903e+00 0.000000000000000000e+00 0.000000000000000000e+00 -6.333963539798487252e-02 7.693364206879884648e+00 0.000000000000000000e+00 -8.525950922059032100e-02 2.559985263953919871e-02 7.674331580944411257e+00
9.305386299324284849e+00 0.000000000000000000e+00 0.000000000000000000e+00 -6.333963539798487252e-02 7.691030301309548456e+00 0.000000000000000000e+00 -8.525950922059032100e-02 2.559985263953919871e-02 7.672003449225838878e+00
9.302808551552578464e+00 0.000000000000000000e+00 0.000000000000000000e+00 -6.333963539798487252e-02 7.688899757172602101e+00 0.000000000000000000e+00 -8.525950922059032100e-02 2.559985263953919871e-02 7.669878175845552981e+00
9.300819520859038292e+00 0.000000000000000000e+00 0.000000000000000000e+00 -6.333963539798487252e-02 7.687255795831738681e+00 0.000000000000000000e+00 -8.525950922059032100e-02 2.559985263953919871e-02 7.668238281503278131e+00
9.296896666143169341e+00 0.000000000000000000e+00 0.000000000000000000e+00 -6.333963539798487252e-02 7.684013502226356707e+00 0.000000000000000000e+00 -8.525950922059032100e-02 2.559985263953919871e-02 7.665004009013724584e+00
9.292357622160274389e+00 0.000000000000000000e+00 0.000000000000000000e+00 -6.333963539798487252e-02 7.680261919682595639e+00 0.000000000000000000e+00 -8.525950922059032100e-02 2.559985263953919871e-02 7.661261707515539143e+00
9.288945816368656239e+00 0.000000000000000000e+00 0.000000000000000000e+00 -6.333963539798487252e-02 7.677442015071816783e+00 0.000000000000000000e+00 -8.525950922059032100e-02 2.559985263953919871e-02 7.658448779071601820e+00
9.287749762603501935e+00 0.000000000000000000e+00 0.000000000000000000e+00 -6.333963539798487252e-02 7.676453460115236105e+00 0.000000000000000000e+00 -8.525950922059032100e-02 2.559985263953919871e-02 7.657462669702944424e+00
9.287992762575720818e+00 0.000000000000000000e+00 0.000000000000000000e+00 -6.333963539798487252e-02 7.676654302949124542e+00 0.000000000000000000e+00 -8.525950922059032100e-02 2.559985263953919871e-02 7.657663015670692630e+00
9.286324986424942196e+00 0.000000000000000000e+00 0.000000000000000000e+00 -6.333963539798487252e-02 7.675275862925840187e+00 0.000000000000000000e+00 -8.525950922059032100e-02 2.559985263953919871e-02 7.656287985771778715e+00
9.280264340952841806e+00 0.000000000000000000e+00 0.000000000000000000e+00 -6.333963539798487252e-02 7.670266655733344763e+00 0.000000000000000000e+00 -8.525950922059032100e-02 2.559985263953919871e-02 7.651291170865949454e+00
9.271142317657956156e+00 0.000000000000000000e+00 0.000000000000000000e+00 -6.333963539798487252e-02 7.662727177487852259e+00 0.000000000000000000e+00 -8.525950922059032100e-02 2.559985263953919871e-02 7.643770344547091256e+00
9.264213905561982543e+00 0.000000000000000000e+00 0.000000000000000000e+00 -6.333963539798487252e-02 7.657000749195897349e+00 0.000000000000000000e+00 -8.525950922059032100e-02 2.559985263953919871e-02 7.638058082875589960e+00
9.263045058968213397e+00 0.000000000000000000e+00 0.000000000000000000e+00 -6.333963539798487252e-02 7.656034681341875370e+00 0.000000000000000000e+00 -8.525950922059032100e-02 2.559985263953919871e-02 7.637094404978809870e+00
9.265145168028354306e+00 0.000000000000000000e+00 0.000000000000000000e+00 -6.333963539798487252e-02 7.657770450487265457e+00 0.000000000000000000e+00 -8.525950922059032100e-02 2.559985263953919871e-02 7.638825880000918112e+00
9.267061514388288401e+00 0.000000000000000000e+00 0.000000000000000000e+00 -6.333963539798487252e-02 7.659354337221937037e+00 0.000000000000000000e+00 -8.525950922059032100e-02 2.559985263953919871e-02 7.640405848356143892e+00
9.269787169527594628e+00 0.000000000000000000e+00 0.000000000000000000e+00 -6.333963539798487252e-02 7.661607128841190217e+00 0.000000000000000000e+00 -8.525950922059032100e-02 2.559985263953919871e-02 7.642653066790478178e+00
9.274178410159294117e+00 0.000000000000000000e+00 0.000000000000000000e+00 -6.333963539798487252e-02 7.665236549874149041e+00 0.000000000000000000e+00 -8.525950922059032100e-02 2.559985263953919871e-02 7.646273508993123080e+00
9.276657740304521838e+00 0.000000000000000000e+00 0.000000000000000000e+00 -6.333963539798487252e-02 7.667285750483332940e+00 0.000000000000000000e+00 -8.525950922059032100e-02 2.559985263953919871e-02 7.648317640082488822e+00
9.274726031221019795e+00 0.000000000000000000e+00 0.000000000000000000e+00 -6.333963539798487252e-02 7.665689166245752695e+00 0.000000000000000000e+00 -8.525950922059032100e-02 2.559985263953919871e-02 7.646725005636172412e+00
9.271418338152098926e+00 0.000000000000000000e+00 0.000000000000000000e+00 -6.333963539798487252e-02 7.662955312238640460e+00 0.000000000000000000e+00 -8.525950922059032100e-02 2.559985263953919871e-02 7.643997914915127367e+00
9.270042210065506438e+00 0.000000000000000000e+00 0.000000000000000000e+00 -6.333963539798487252e-02 7.661817923367792105e+00 0.000000000000000000e+00 -8.525950922059032100e-02 2.559985263953919871e-02 7.642863339832083547e+00
9.269491764664035571e+00 0.000000000000000000e+00 0.000000000000000000e+00 -6.333963539798487252e-02 7.661362972641626357e+00 0.000000000000000000e+00 -8.525950922059032100e-02 2.559985263953919871e-02 7.642409514609438403e+00
9.266281679845251418e+00 0.000000000000000000e+00 0.000000000000000000e+00 -6.333963539798487252e-02 7.658709793201126104e+00 0.000000000000000000e+00 -8.525950922059032100e-02 2.559985263953919871e-02 7.639762898874154828e+00
9.261400159487752859e+00 0.000000000000000000e+00 0.000000000000000000e+00 -6.333963539798487252e-02 7.654675149202751605e+00 0.000000000000000000e+00 -8.525950922059032100e-02 2.559985263953919871e-02 7.635738236187325612e+00
9.259541342986658208e+00 0.000000000000000000e+00 0.000000000000000000e+00 -6.333963539798487252e-02 7.653138811690372911e+00 0.000000000000000000e+00 -8.525950922059032100e-02 2.559985263953919871e-02 7.634205699423068481e+00
9.260436876430699016e+00 0.000000000000000000e+00 0.000000000000000000e+00 -6.333963539798487252e-02 7.653878982451727708e+00 0.000000000000000000e+00 -8.525950922059032100e-02 2.559985263953919871e-02 7.634944039074963662e+00
9.259847004745177301e+00 0.000000000000000000e+00 0.000000000000000000e+00 -6.333963539798487252e-02 7.653391445356137801e+00 0.000000000000000000e+00 -8.525950922059032100e-02 2.559985263953919871e-02 7.634457708097430739e+00
9.257099216193276803e+00 0.000000000000000000e+00 0.000000000000000000e+00 -6.333963539798487252e-02 7.651120360166188128e+00 0.000000000000000000e+00 -8.525950922059032100e-02 2.559985263953919871e-02 7.632192241349139650e+00
9.255196168176793137e+00 0.000000000000000000e+00 0.000000000000000000e+00 -6.333963539798487252e-02 7.649547464695247712e+00 0.000000000000000000e+00 -8.525950922059032100e-02 2.559985263953919871e-02 7.630623237066800790e+00
9.256176950868113096e+00 0.000000000000000000e+00 0.000000000000000000e+00 -6.333963539798487252e-02 7.650358095136015280e+00 0.000000000000000000e+00 -8.525950922059032100e-02 2.559985263953919871e-02 7.631431862088112084e+00
9.257960833942545875e+00 0.000000000000000000e+00 0.000000000000000000e+00 -6.333963539798487252e-02 7.651832499135902133e+00 0.000000000000000000e+00 -8.525950922059032100e-02 2.559985263953919871e-02 7.632902618556994589e+00
9.256677693739687740e+00 0.000000000000000000e+00 0.000000000000000000e+00 -6.333963539798487252e-02 7.650771966035649463e+00 0.000000000000000000e+00 -8.525950922059032100e-02 2.559985263953919871e-02 7.631844709111640590e+00
9.252472039228701206e+00 0.000000000000000000e+00 0.000000000000000000e+00 -6.333963539798487252e-02 7.647295934493733682e+00 0.000000000000000000e+00 -8.525950922059032100e-02 2.559985263953919871e-02 7.628377276930223161e+00
9.250155901105088674e+00 0.000000000000000000e+00 0.000000000000000000e+00 -6.333963539798487252e-02 7.645381614345136967e+00 0.000000000000000000e+00 -8.525950922059032100e-02 2.559985263953919871e-02 7.626467692621365480e+00
9.252140354927975707e+00 0.000000000000000000e+00 0.000000000000000000e+00 -6.333963539798487252e-02 7.647021792838775589e+00 0.000000000000000000e+00 -8.525950922059032100e-02 2.559985263953919871e-02 7.628103813474361949e+00
9.254407883809395940e+00 0.000000000000000000e+00 0.000000000000000000e+00 -6.333963539798487252e-02 7.648895936778639104e+00 0.000000000000000000e+00 -8.525950922059032100e-02 2.559985263953919871e-02 7.629973320965913963e+00
9.253272136508099877e+00 0.000000000000000000e+00 0.000000000000000000e+00 -6.333963539798487252e-02 7.647957225947140891e+00 0.000000000000000000e+00 -8.525950922059032100e-02 2.559985263953919871e-02 7.629036932413048255e+00
9.250795833515445210e+00 0.000000000000000000e+00 0.000000000000000000e+00 -6.333963539798487252e-02 7.645910527320554984e+00 0.000000000000000000e+00 -8.525950922059032100e-02 2.559985263953919871e-02 7.626995297117316497e+00
9.250649874830628505e+00 0.000000000000000000e+00 0.000000000000000000e+00 -6.333963539798487252e-02 7.645789890451976767e+00 0.000000000000000000e+00 -8.525950922059032100e-02 2.559985263953919871e-02 7.626874958693020012e+00
9.253752327760974339e+00 0.000000000000000000e+00 0.000000000000000000e+00 -6.333963539798487252e-02 7.648354110649552950e+00 0.000000000000000000e+00 -8.525950922059032100e-02 2.559985263953919871e-02 7.629432835262112356e+00
9.258709945845431832e+00 0.000000000000000000e+00 0.000000000000000000e+00 -6.333963539798487252e-02 7.652451650470879940e+00 0.000000000000000000e+00 -8.525950922059032100e-02 2.559985263953919871e-02 7.633520238172789796e+00
9.265899750039753968e+00 0.000000000000000000e+00 0.000000000000000000e+00 -6.333963539798487252e-02 7.658394122941219351e+00 0.000000000000000000e+00 -8.525950922059032100e-02 2.559985263953919871e-02 7.639448009551752961e+00
9.275063746630028305e+00 0.000000000000000000e+00 0.000000000000000000e+00 -6.333963539798487252e-02 7.665968292695017006e+00 0.000000000000000000e+00 -8.525950922059032100e-02 2.559985263953919871e-02 7.647003441554411474e+00
9.282354757854774263e+00 0.000000000000000000e+00 0.000000000000000000e+00 -6.333963539798487252e-02 7.671994414175847155e+00 0.000000000000000000e+00 -8.525950922059032100e-02 2.559985263953919871e-02 7.653014655004056088e+00
9.284939786469569967e+00 0.000000000000000000e+00 0.000000000000000000e+00 -6.333963539798487252e-02 7.674130976030153484e+00 0.000000000000000000e+00 -8.525950922059032100e-02 2.559985263953919871e-02 7.655145931213788835e+00
9.284611894235016649e+00 0.000000000000000000e+00 0.000000000000000000e+00 -6.333963539798487252e-02 7.673859968569154866e+00 0.000000000000000000e+00 -8.525950922059032100e-02 2.559985263953919871e-02 7.654875594198929711e+00
9.285870175303971408e+00 0.000000000000000000e+00 0.000000000000000000e+00 -6.333963539798487252e-02 7.674899955251677675e+00 0.000000000000000000e+00 -8.525950922059032100e-02 2.559985263953919871e-02 7.655913008057263269e+00
9.290321872107664802e+00 0.000000000000000000e+00 0.000000000000000000e+00 -6.333963539798487252e-02 7.678579344146006846e+00 0.000000000000000000e+00 -8.525950922059032100e-02 2.559985263953919871e-02 7.659583294504988871e+00
9.297077692953124028e+00 0.000000000000000000e+00 0.000000000000000000e+00 -6.333963539798487252e-02 7.684163123385092220e+00 0.000000000000000000e+00 -8.525950922059032100e-02 2.559985263953919871e-02 7.665153260024590409e+00
9.305147173549764616e+00 0.000000000000000000e+00 0.000000000000000000e+00 -6.333963539798487252e-02 7.690832660553228450e+00 0.000000000000000000e+00 -8.525950922059032100e-02 2.559985263953919871e-02 7.671806297413703568e+00
9.311483904227634056e+00 0.000000000000000000e+00 0.000000000000000000e+00 -6.333963539798487252e-02 7.696070055981202529e+00 0.000000000000000000e+00 -8.525950922059032100e-02 2.559985263953919871e-02 7.677030736040261871e+00