8.138779125599999997e-02 3.836564288551000068e+00 3.632508855263000047e+00 4.719238025474999709e+00 7.542433348646000013e+00 3.153613418600000051e-02 4.608998904584000300e+00 7.581736856156999771e+00 3.724673945321999913e+00 4.864326299244000396e+00 3.733441348424999973e+00 3.697701585587000128e+00 5.046747618239999511e-01 5.124449203300000116e-02 2.783250962930000072e-01 5.997610688519999789e-01 4.033779174600000267e-02 3.615667822872000059e+00 3.364353381679999755e-01 3.784171245057999844e+00 1.238335581890000064e-01 5.257842272945000062e+00 3.701615762159999878e+00 8.834769667099999502e-02 2.528641036111999973e+00 1.912680776089999979e+00 1.807261957776999939e+00 2.454218722760999949e+00 5.606957884904000267e+00 1.824938609376999921e+00 7.217271537549000193e+00 1.841106170505000028e+00 1.840467262920999936e+00 7.178224140937000008e+00 5.749568241318000261e+00 1.817597450620000110e+00 2.371217874741999854e+00 1.959254635621000107e+00 5.705621139266000341e+00 2.320800381425999870e+00 5.652378475546999681e+00 5.709210368069999930e+00 7.248223622066999994e+00 1.854933172943999953e+00 5.647866111918999898e+00 7.218264098164000053e+00 5.762402525457999580e+00 5.685033783129999740e+00 1.856648467764999921e+00 1.959197368164000030e+00 7.551850487770000342e+00 8.927581956678999120e+00 1.688457704176999918e+00 1.977914526504999992e+00 2.325178261553999981e+00 1.057202649920000043e-01 2.001274798702000091e+00 2.225577672178999933e+00 2.187108277064000017e+00 3.759829913784999977e+00 9.049563006487000294e+00 1.682944504658999918e+00 5.468351971407000356e+00 2.156868567611999854e+00 1.033714675930000049e-01 5.529011960802000303e+00 2.000587225087000043e+00 6.039005839199999670e+00 7.572903910634000368e+00 8.931847094417999955e+00 5.891907831252000349e+00 1.862920975291999959e+00 1.913673463327999924e+00 3.888434693914999851e+00 1.787365510664999935e+00 2.095560764401999787e+00 5.745511528730999906e+00 3.780485153479999916e+00 8.990164792739999911e+00 5.921062652855000330e+00 5.648494583373000033e+00 1.671010924544999998e+00 3.895040534681000199e+00 5.784239976667000072e+00 6.779356773850000017e+00 1.824205895301000080e+00 7.512112300829000056e+00 4.297699109849999921e+00 2.051819320549999937e+00 1.703998215079000067e+00 6.506967994116999776e+00 7.530971880277999908e+00 1.896460781660999961e+00 6.671309104206000207e+00 1.813515818099000088e+00 3.832677403412000139e+00 4.212510795185999690e+00 2.103637135722999929e+00 5.831673611022000436e+00 6.466277927409000092e+00 7.556016027987999983e+00 5.684280965141000230e+00 6.652722991210000103e+00 5.612845230475000058e+00 7.542113500839000118e+00 4.236751216740000103e+00 5.551583582080000134e+00 1.852699136055999896e+00 6.948128202234999939e+00 3.736948613947999931e+00 1.940440760403999931e+00 6.722828973871999736e+00 5.651668337661000407e+00 3.796525471500999949e+00 4.150005236703999678e+00 5.556454821598999949e+00 5.683335753678999680e+00 6.927033230220000171e+00 3.800331988007000117e+00 5.652090442427000205e+00
9.003927171799999685e-02 3.838649727987999860e+00 3.644325725025999940e+00 4.723740063762000396e+00 7.541096123480000024e+00 4.925823016199999682e-02 4.580408126093000298e+00 7.595530272712999853e+00 3.722655375007999812e+00 4.891367006730000355e+00 3.709409837292999779e+00 3.705231217015999778e+00 5.268067533610000241e-01 1.013739428470000065e-01 2.433466113849999946e-01 5.998812100699999483e-01 3.026835512200000064e-02 3.628590067655999896e+00 2.898216482550000084e-01 3.781004677037000050e+00 1.259603495230000036e-01 5.293779510555999934e+00 3.736834506292999958e+00 3.505636189099999717e-02 2.563258116396000208e+00 1.931660091411999902e+00 1.810935206984999990e+00 2.457075803442000161e+00 5.609511427214999735e+00 1.852611657910999909e+00 7.212510571273000437e+00 1.875373729819999946e+00 1.838944502973999917e+00 7.203718058441999972e+00 5.729465435512000049e+00 1.806348315331999910e+00 2.365840131610000174e+00 1.952979350667999991e+00 5.693695794111000019e+00 2.322648709171999837e+00 5.679452270487000298e+00 5.709854187132999748e+00 7.246226121604999904e+00 1.844287214618000048e+00 5.627778968508000190e+00 7.214556746314999991e+00 5.760428698975999851e+00 5.710232116082999632e+00 1.863521004809999937e+00 2.036481512865000010e+00 7.562201396516999630e+00 8.911447034350999274e+00 1.697365294432999994e+00 2.011550314685000007e+00 2.351845084713999778e+00 1.127118556090000029e-01 1.965067760279999964e+00 2.275084962635999908e+00 2.244478912481000066e+00 3.716855545931000204e+00 9.052865907919999344e+00 1.661573788696000031e+00 5.476442028374999715e+00 2.212750774881000027e+00 1.293748824379999940e-01 5.513858314880000222e+00 1.994434388563000038e+00 6.052492804584000297e+00 7.539830287756999816e+00 8.958084394279000051e+00 5.915368415148999581e+00 1.868805755004999902e+00 1.927942128867000005e+00 3.908854686205999851e+00 1.782070735001000106e+00 2.120095946380999852e+00 5.725893123632999959e+00 3.813895713553999922e+00 9.022888496087000831e+00 5.956677463681000262e+00 5.652042704448000165e+00 1.603025751777999997e+00 3.945913013546999970e+00 5.754499659356000052e+00 6.814059467127999703e+00 1.775652534935999949e+00 7.568816527717999953e+00 4.281569849371000380e+00 2.043627771575999841e+00 1.651524100035999920e+00 6.479690220984999804e+00 7.528077844085999892e+00 1.950296388129000080e+00 6.576237248937999880e+00 1.824988669402000108e+00 3.870220215959999877e+00 4.251409421362000174e+00 2.066024958362000064e+00 5.885919172233999852e+00 6.438039753864000403e+00 7.549667823720000115e+00 5.652447717994999898e+00 6.668625844066999875e+00 5.571915269337999632e+00 7.525751708641999826e+00 4.246483352519000221e+00 5.546843562841999642e+00 1.866942379524000106e+00 6.924652526933999575e+00 3.757894827494999923e+00 1.915763228501000004e+00 6.725700358442000315e+00 5.632543286329999788e+00 3.783670693473999869e+00 4.184279168611999999e+00 5.589353886798000381e+00 5.697400114086000222e+00 6.946748005444000285e+00 3.798493125922000058e+00 5.706142567021999845e+00
1.003845077559999965e-01 3.845804760589000004e+00 3.657502760187000046e+00 4.732044669575000029e+00 7.545183623317000432e+00 6.681417006100000278e-02 4.556945390339000035e+00 7.612274055271000428e+00 3.723333926292999863e+00 4.918812830129000169e+00 3.694162294610999986e+00 3.716238883953999927e+00 5.480454352750000480e-01 1.471466869530000110e-01 2.114274250129999921e-01 5.956845976129999665e-01 1.823585731799999901e-02 3.638148965766000220e+00 2.491199275429999971e-01 3.784742170328000199e+00 1.258302012499999956e-01 5.238690464245999934e+00 3.794896327974000005e+00 7.577819602196999682e+00 2.571699880464000110e+00 1.957706200030999932e+00 1.811029140905999979e+00 2.462354708898999878e+00 5.636693921063000268e+00 1.874395708450999898e+00 7.202600829827000339e+00 1.888120636126999985e+00 1.841330276436000002e+00 7.236424908722000282e+00 5.732878183559999563e+00 1.815617196849999893e+00 2.369353679890000119e+00 1.963736866312999929e+00 5.693322470418999970e+00 2.328688496544999875e+00 5.710801424780999724e+00 5.720025103460000260e+00 7.249178330266000003e+00 1.829518970472000072e+00 5.625481256549999642e+00 7.217248980526999702e+00 5.768667117716000270e+00 5.726068042104000000e+00 1.881304581570999890e+00 2.081300847006000154e+00 7.549250436952999799e+00 8.918372772720999819e+00 1.722495457893000070e+00 2.050240874846000150e+00 2.400287475364999867e+00 1.147203904850000039e-01 1.938382175307000077e+00 2.346229449508999920e+00 2.287203553768000219e+00 3.728195168870000131e+00 9.043241757318000396e+00 1.655587291006000106e+00 5.489179223380999950e+00 2.280362246643000024e+00 1.227214594630000044e-01 5.496472186587999964e+00 2.006683972308000108e+00 6.060842456016000135e+00 7.553844289177000348e+00 8.952077706468999807e+00 5.927573643642999990e+00 1.872641956637000060e+00 1.941609251618999998e+00 3.902884890188000000e+00 1.773467615359000105e+00 2.138051939018999814e+00 5.714113751443999689e+00 3.780867924092000010e+00 9.035200999487999596e+00 5.999985628009000038e+00 5.663177384748999899e+00 1.560404268807999983e+00 3.931346110068000055e+00 5.739013680401000350e+00 6.866037986528000125e+00 1.744301375687999922e+00 7.590607636571999883e+00 4.329033448696000264e+00 2.047965244281999997e+00 1.617411114273000106e+00 6.487972602995999871e+00 7.538104859290999826e+00 1.980875496611000042e+00 6.508381407836999699e+00 1.850216365774000060e+00 3.856482485058999821e+00 4.221259000929999949e+00 2.037402150833000025e+00 5.918796056277000339e+00 6.435427001186000417e+00 7.570112250062999593e+00 5.644005957052000255e+00 6.687094942158999800e+00 5.572078652135999732e+00 7.545932009407000152e+00 4.238934087610999768e+00 5.548764264518999845e+00 1.881478656986000031e+00 6.926136984525999907e+00 3.767386176846000190e+00 1.898578834884999900e+00 6.751923288751999763e+00 5.610580039273999731e+00 3.803668833956999951e+00 4.201229715050000202e+00 5.617910485262999742e+00 5.720711595749000011e+00 6.992446847876999882e+00 3.739105698238000208e+00 5.747699314923999658e+00
1.121027857130000027e-01 3.856322762846999819e+00 3.669996084227999944e+00 4.742712225597999876e+00 7.552462109473999874e+00 8.428723108100000250e-02 4.537713571071999574e+00 7.629341712439000389e+00 3.725425993340000019e+00 4.942621552159000231e+00 3.688699464696000074e+00 3.728572433895999794e+00 5.655001976910000172e-01 1.864692456900000073e-01 1.849032442409999921e-01 5.232603253869999582e-01 7.636268283132999990e+00 3.641024954251999901e+00 2.178527053350000076e-01 3.792661603556000127e+00 1.231531053639999956e-01 5.258041688708999573e+00 3.818156833529999794e+00 7.548331649078999561e+00 2.573195736621999963e+00 1.992155292350999973e+00 1.801264348302999974e+00 2.470191986205999779e+00 5.673183608049000348e+00 1.883353297988999975e+00 7.192931543491999591e+00 1.875856083376999939e+00 1.849049861406000028e+00 7.254265348755000176e+00 5.760371010669000036e+00 1.845302588130999899e+00 2.378963308764999951e+00 1.992520614307000004e+00 5.704177011725000135e+00 2.337236954473000061e+00 5.736039134971999687e+00 5.738234570356000042e+00 7.251896582034000005e+00 1.808394019033999989e+00 5.638043274003000427e+00 7.227184791392000207e+00 5.785225663155999953e+00 5.729578478801999886e+00 1.901701744107999970e+00 2.076283551765000013e+00 7.533943698695999558e+00 8.930535742636999785e+00 1.759091026109000033e+00 2.090944769611999821e+00 2.453311635649999989e+00 1.268775736040000102e-01 1.927475794303999956e+00 2.430033878285000171e+00 2.299996067987000181e+00 3.771075289760000171e+00 9.044686134279999123e+00 1.652688019121999918e+00 5.491273217058999734e+00 2.336651201964000002e+00 7.873574004899999701e-02 5.472365404069000405e+00 2.032996763634999926e+00 6.060419508086999585e+00 7.586881183665999728e+00 8.957666449558999489e+00 5.931482860566999804e+00 1.875252491119999920e+00 1.950006194721999986e+00 3.888822981783000010e+00 1.761085002978000080e+00 2.142844810174000081e+00 5.718100265301999663e+00 3.730597268684999968e+00 9.002456016124000371e+00 6.044119983616999647e+00 5.680418082013999559e+00 1.569664758283999983e+00 3.907261372557000012e+00 5.739697665015000005e+00 6.928290044358000443e+00 1.727141733572000071e+00 7.564045130967000041e+00 4.383824932146000108e+00 2.067157636404000076e+00 1.610573036632999999e+00 6.533780026748000402e+00 7.544316642094000436e+00 1.983552902298999943e+00 6.497230212644000247e+00 1.871442891530000097e+00 3.818191704195999847e+00 4.157419672874000049e+00 2.033933521292000002e+00 5.927168196236999975e+00 6.458364240164000236e+00 7.582717873551000132e+00 5.659813429585000222e+00 6.708293538416000068e+00 5.616141465429000057e+00 7.584146408001999795e+00 4.221005201498000403e+00 5.558896190007000193e+00 1.893914729045000023e+00 6.952574590492999640e+00 3.767685455168999997e+00 1.890046059442999971e+00 6.802182155831999921e+00 5.581849817400000191e+00 3.863482589433000047e+00 4.179064827100999580e+00 5.630984945457999657e+00 5.746926692118999647e+00 7.053638961614000280e+00 3.690594316180999979e+00 5.771230581940000270e+00
1.244141920789999939e-01 3.869389571764000113e+00 3.681189968472999841e+00 4.755856172937999560e+00 7.563439377597999780e+00 1.012693655940000020e-01 4.522801945120000333e+00 7.647912800761000440e+00 3.729207560148000145e+00 4.961945685758999858e+00 3.693806907364999947e+00 3.741205501532999911e+00 5.759335626289999732e-01 2.155713863010000064e-01 1.644663631870000031e-01 5.105980693939999870e-01 7.645226104047000426e+00 3.637839420538000024e+00 1.955326597610000106e-01 3.803341869829000021e+00 1.190534898269999947e-01 5.269449522120000395e+00 3.832087010793999937e+00 7.536013169164999859e+00 2.590011938041000050e+00 2.036565295607000170e+00 1.784061554273000061e+00 2.474228701251000029e+00 5.705938130042000012e+00 1.878347633803999939e+00 7.196852086133000093e+00 1.850223062249999995e+00 1.862585321480999978e+00 7.255041930077999801e+00 5.800850237459999725e+00 1.884808118512000030e+00 2.382362193121000171e+00 2.029299941702999988e+00 5.721406685064000186e+00 2.343365056565000160e+00 5.755345496133999816e+00 5.762309146137000404e+00 7.260253191922999783e+00 1.782742341867000091e+00 5.658665301210000109e+00 7.239007372026000198e+00 5.806014610601000214e+00 5.732205251261000001e+00 1.913290592022000025e+00 2.017822909294999967e+00 7.563975750785999708e+00 8.927994769119999674e+00 1.794505484514999916e+00 2.125109220838000024e+00 2.497106326613999894e+00 1.580625720419999991e-01 1.931942665035000006e+00 2.513040239529999997e+00 2.280195204905000050e+00 3.788136192331000185e+00 9.068307905678999248e+00 1.642630046907999963e+00 5.478788967650999986e+00 2.369068166459999958e+00 3.809223677999999669e-02 5.448891099048999820e+00 2.063692174613000141e+00 6.052785621143000228e+00 7.602983719364999615e+00 8.995975959028999824e+00 5.935893928848000378e+00 1.882010245292000006e+00 1.954541953257999953e+00 3.879110795273999823e+00 1.746175629279999919e+00 2.129149828611999862e+00 5.734798861888999788e+00 3.731144565745000197e+00 8.990123109738000551e+00 6.088373227091000039e+00 5.702178721157999952e+00 1.631048339871999930e+00 3.916720387504000200e+00 5.758287960868999633e+00 6.987093950281000332e+00 1.718033100441000105e+00 7.540063743469000102e+00 4.392858404519000004e+00 2.098091847202999904e+00 1.630104659988000027e+00 6.601748401554999646e+00 7.549107754603999965e+00 1.969423212599000106e+00 6.547695256225999572e+00 1.865817795234999910e+00 3.786840942084999995e+00 4.165622472323000203e+00 2.065598319136999983e+00 5.931130146449000051e+00 6.482251502025000001e+00 7.576964158350000034e+00 5.684379632310999853e+00 6.729687990969000388e+00 5.691749979745000410e+00 7.623165582826000097e+00 4.225348875465000376e+00 5.581612713888000066e+00 1.904402277211000083e+00 6.996495912943999862e+00 3.761743001699000111e+00 1.888621661621999959e+00 6.859318469008999664e+00 5.553343550974999765e+00 3.912750688666999821e+00 4.148678650172000104e+00 5.620292686881000144e+00 5.771520367691000075e+00 7.113701315280000159e+00 3.709744995833999859e+00 5.779702707042000398e+00
1.359644004849999976e-01 3.883947160207000149e+00 3.690036587105999910e+00 4.770178301697000300e+00 7.576898931342999965e+00 1.166626740310000021e-01 4.510355534154999901e+00 7.667667410514999560e+00 3.734481182675000177e+00 4.976912395697000058e+00 3.707576971257000142e+00 3.752982022689999919e+00 5.755418427530000214e-01 2.274760343789999917e-01 1.514029877130000090e-01 4.966812133160000142e-01 7.658726217969999972e+00 3.628879480731999951e+00 1.784425273109999932e-01 3.816620582356999858e+00 1.158502670149999941e-01 5.277500842694999861e+00 3.839016504996000112e+00 7.542291289638000329e+00 2.623696873126999840e+00 2.083528888670000079e+00 1.767785195512999952e+00 2.471077576766000039e+00 5.731201838698999573e+00 1.868243714871000050e+00 7.220625581620000233e+00 1.829912379747000051e+00 1.882376814474999938e+00 7.261912026290000099e+00 5.835252466522000248e+00 1.919737802687000006e+00 2.382341704095999990e+00 2.063600876794000172e+00 5.740574668120999924e+00 2.343547161381999810e+00 5.773065470723000026e+00 5.785891683035999655e+00 7.280733146068000039e+00 1.760357376865000045e+00 5.679497148125999928e+00 7.251676373511999785e+00 5.823925379607000075e+00 5.746454160400999989e+00 1.915183109847000020e+00 1.922314567417999998e+00 7.612346160389000360e+00 8.918139817243000422e+00 1.811356751636999940e+00 2.144835335704999846e+00 2.524727439495999981e+00 1.820304581490000129e-01 1.948132667542000096e+00 2.576033698768999791e+00 2.237728800498000048e+00 3.777978051133000115e+00 9.095560318507999398e+00 1.626135939432000077e+00 5.457930661728999766e+00 2.377318053576999990e+00 5.817178816899999660e-02 5.440664430654000405e+00 2.086561029288000135e+00 6.048052439166999861e+00 7.620356693709999796e+00 9.026638199640000693e+00 5.942527350317000412e+00 1.898337811088000038e+00 1.957853462834000080e+00 3.893736579252999874e+00 1.731050623733999982e+00 2.101199919614999967e+00 5.752140102120000265e+00 3.767612958850000027e+00 9.039350039203000620e+00 6.130562567733999657e+00 5.725784452682000314e+00 1.717555067983000061e+00 3.935081596792000092e+00 5.793281766610999917e+00 7.028287847108999564e+00 1.711616540941000020e+00 7.557221821056000266e+00 4.375540777027000061e+00 2.138857748850000018e+00 1.659143703742000042e+00 6.660539757063999922e+00 7.570937509414999766e+00 1.955150716362999974e+00 6.634687031247000100e+00 1.828383984788999994e+00 3.788649581095000052e+00 4.241828093818000411e+00 2.126292364584999817e+00 5.942432649267000322e+00 6.479444011696999794e+00 7.583085603506000361e+00 5.696210066371000025e+00 6.829266778723999565e+00 5.750802717207999848e+00 3.266844392999999815e-03 4.251564234348999882e+00 5.618112444164999886e+00 1.914990887984000079e+00 7.040547252525000133e+00 3.751301940744999897e+00 1.889668663998000042e+00 6.899986285487999638e+00 5.537656053214999652e+00 3.888071950921000219e+00 4.161158963510000142e+00 5.585756794369999945e+00 5.790177901215000311e+00 7.162470077882000297e+00 3.761301146395000128e+00 5.777173758708999962e+00
1.451049950609999972e-01 3.896722409724000080e+00 3.693505982258999953e+00 4.781666576095999766e+00 7.587477103322999739e+00 1.292293243590000029e-01 4.496060003821000350e+00 7.683525380290999962e+00 3.738771850990000090e+00 4.985813117513999693e+00 3.725038579510000059e+00 3.761171943344999935e+00 5.590140897359999750e-01 2.145262830890000139e-01 1.473812338770000008e-01 4.833551703289999946e-01 7.671816733776999797e+00 3.612477364741999875e+00 1.622639500420000047e-01 3.830069935138999959e+00 1.161886084960000037e-01 5.282354327376999947e+00 3.838363172106999954e+00 7.560601242297999569e+00 2.656013275858999823e+00 2.117199739034000050e+00 1.759610354140000110e+00 2.466877103414999883e+00 5.750314291959999657e+00 1.863649637104999979e+00 7.253854748978000089e+00 1.826029450247999897e+00 1.904345012682999938e+00 7.284046406546000441e+00 5.847900530151999732e+00 1.941342181516999998e+00 2.396806964452999900e+00 2.085827420154999778e+00 5.757418217800999827e+00 2.342716883251999782e+00 5.793085078056000370e+00 5.798484087361000405e+00 7.309041832519000081e+00 1.745740602938000041e+00 5.694411356493000120e+00 7.269128819699999688e+00 5.832540622291999988e+00 5.768856554353000377e+00 1.919292500367000054e+00 1.826657067803000078e+00 7.615557634343000259e+00 8.941178691762999620e+00 1.798645263222999890e+00 2.150468202093000158e+00 2.535831885879999970e+00 1.708213344879999929e-01 1.970475215433999949e+00 2.599781509396000168e+00 2.194392580135000159e+00 3.774709064641999845e+00 9.107848521825999910e+00 1.611223385376999939e+00 5.438040361428000402e+00 2.369856533591999881e+00 1.260221028799999865e-01 5.461333070578000104e+00 2.093722975932000185e+00 6.053013781805000271e+00 7.652790408677000222e+00 9.026057585420000251e+00 5.947970137398000290e+00 1.923309609486999916e+00 1.959536203852999980e+00 3.939672233018999936e+00 1.716516791639000061e+00 2.069845980074000114e+00 5.757733188189999574e+00 3.801782621820000152e+00 9.084844719908000243e+00 6.150571788028999620e+00 5.747728096032999723e+00 1.790568591371999974e+00 3.929918698553999779e+00 5.837075772183999867e+00 7.046223157115999669e+00 1.706952469571999975e+00 7.594255652305999860e+00 4.387132094598999998e+00 2.187357011363999959e+00 1.676087222977000080e+00 6.682074841690999634e+00 7.613017953221000056e+00 1.950346114887000049e+00 6.718695813243999559e+00 1.778008070964000042e+00 3.836584969043999926e+00 4.279471995058999667e+00 2.201297889955999842e+00 5.954530737175000255e+00 6.446105195274999922e+00 7.606105912229000232e+00 5.682227717716999749e+00 6.749288939371999696e+00 5.843222053187999698e+00 7.660140332962999565e+00 4.257828237134999583e+00 5.661794431821999929e+00 1.926783202570000020e+00 7.065126156789999889e+00 3.740181919608999817e+00 1.886373285070999994e+00 6.917280424489000268e+00 5.551860357745000307e+00 3.822568679927000002e+00 4.190910614199999884e+00 5.542371190469999931e+00 5.797019153765999633e+00 7.194432227902000321e+00 3.797125248913999940e+00 5.768763310920999920e+00
1.510670886029999993e-01 3.904274873878999852e+00 3.689912910559999926e+00 4.787577698421999983e+00 7.591351013976000317e+00 1.379421726289999928e-01 4.477671737557000320e+00 7.691309839588999608e+00 3.740036897149999984e+00 4.987436674382999868e+00 3.742455018942000056e+00 3.763994391566999997e+00 5.236654995880000163e-01 1.744310705219999924e-01 1.531237277380000095e-01 4.718867797230000272e-01 7.682502631586999975e+00 3.588514997923999861e+00 1.459022038720000081e-01 3.839968659995999900e+00 1.206036878310000060e-01 5.283017029746000404e+00 3.828315249050000091e+00 7.584092245565000390e+00 2.670411306285000119e+00 2.125320933569000204e+00 1.759367653001000065e+00 2.466173383084000026e+00 5.770391412338000237e+00 1.867559798505000090e+00 7.287938511798000008e+00 1.835699721162000086e+00 1.922330883721000028e+00 7.305292900060999628e+00 5.840719357809000201e+00 1.946915310612999939e+00 2.432881848130000080e+00 2.090379230258999854e+00 5.768906156709999955e+00 2.347070519674999911e+00 5.815095963371000209e+00 5.795924017283000218e+00 7.336596143222999800e+00 1.737175070431999924e+00 5.703711780030999989e+00 7.288203413431999955e+00 5.831191369886999709e+00 5.789514114675999856e+00 1.940432295431999909e+00 1.768445374176000007e+00 7.591336872363999788e+00 9.012367300884999821e+00 1.761386739746999996e+00 2.143958377600999832e+00 2.535228909300000222e+00 1.347908480309999990e-01 1.991219563267000003e+00 2.580265657607000218e+00 2.176091396413000201e+00 3.766890915705999987e+00 9.111211479713000827e+00 1.602791448612000069e+00 5.426178594553999979e+00 2.359239324104000168e+00 1.588132212910000063e-01 5.507939094389000090e+00 2.083922235929999811e+00 6.068047809359000233e+00 7.669751164338999949e+00 9.019749200870000649e+00 5.949965587758000218e+00 1.949211223188999975e+00 1.960424465507000003e+00 3.975828806607000221e+00 1.703551896513000097e+00 2.042163309750999911e+00 5.750737032366999735e+00 3.830173651992999861e+00 9.077813560261999370e+00 6.134407792595999886e+00 5.766222887039999634e+00 1.818241428532000104e+00 3.930176228146000206e+00 5.880707507486000019e+00 7.042550470003999585e+00 1.707523808808999899e+00 7.619935537308999862e+00 4.434956707710999702e+00 2.236393465182000106e+00 1.670571997686999932e+00 6.661657968323000389e+00 7.648203450329999598e+00 1.954460553025000102e+00 6.766534519230999578e+00 1.748434021563000096e+00 3.896853276490999995e+00 4.245592586591000028e+00 2.276933710759000196e+00 5.963242620352000145e+00 6.402659260038999989e+00 7.613269002483000314e+00 5.648290346719000432e+00 6.751175152579000027e+00 5.870763384343000268e+00 7.616153715574999872e+00 4.228323096229000377e+00 5.698005769055000336e+00 1.941379123721000077e+00 7.065036450855999739e+00 3.736255029068999978e+00 1.876684691893999890e+00 6.913545887665000222e+00 5.598778382843000223e+00 3.789059693473999957e+00 4.176968209467999849e+00 5.514836885777000042e+00 5.789018597999000093e+00 7.208797794622999966e+00 3.813279451725000158e+00 5.756844899573000163e+00
1.547804552379999921e-01 3.905236474764000043e+00 3.680709360053000090e+00 4.788032016638999799e+00 7.589077054132999933e+00 1.420451102560000012e-01 4.456720873246999837e+00 7.691024134976999882e+00 3.738317289562000045e+00 4.982632364708999617e+00 3.759396180476000104e+00 3.761569948360000026e+00 4.759026383100000146e-01 1.138472224860000021e-01 1.677282803490000029e-01 4.638814149309999912e-01 7.692621657229000043e+00 3.560236313114999884e+00 1.333869713090000131e-01 3.844829349899999915e+00 1.267221380459999935e-01 5.280103596034000368e+00 3.808665080603999886e+00 7.610612948133000266e+00 2.670246262680000093e+00 2.108823335979999936e+00 1.762813315058999963e+00 2.460231622714000199e+00 5.797090540561000260e+00 1.875104163013999958e+00 7.329551677479000382e+00 1.846588984393999988e+00 1.933023648187000010e+00 7.307173594484999590e+00 5.825329601292000170e+00 1.940306235705999915e+00 2.476736055092000122e+00 2.081796560268000196e+00 5.774141462929000213e+00 2.353546575699999810e+00 5.835185018494000175e+00 5.783009858131999970e+00 7.358035582172999689e+00 1.731668322418999928e+00 5.712331971290000254e+00 7.299171843208999810e+00 5.822158704181999767e+00 5.799181447378000342e+00 1.981050905520000072e+00 1.758362225898000064e+00 7.598799381986999890e+00 9.079327325420999628e+00 1.716547929047999910e+00 2.121122188793000074e+00 2.528105489932999994e+00 1.039567611729999980e-01 2.005532656524000146e+00 2.530080893220000071e+00 2.190155413342000035e+00 3.733780664484000145e+00 9.125460094629000096e+00 1.598381650939999954e+00 5.427014172404000192e+00 2.360779818356999904e+00 1.128246477670000053e-01 5.557931524608999752e+00 2.060966897986999946e+00 6.092279180274999817e+00 7.659696665521999570e+00 9.033723541317000283e+00 5.949831115205999943e+00 1.966217174400999967e+00 1.963893329610999938e+00 3.955798050152000034e+00 1.695093400725999899e+00 2.020577147431999787e+00 5.739907505797000375e+00 3.846271581458000188e+00 9.055248577005999167e+00 6.093933754611000175e+00 5.782847267431000304e+00 1.789487239790999995e+00 3.948434901025999810e+00 5.914088511745999810e+00 7.024706538159000146e+00 1.716837292257999970e+00 7.630623240233999738e+00 4.459864959774000326e+00 2.269880899779999961e+00 1.647561539367000005e+00 6.616833982175999829e+00 7.655240793763000262e+00 1.960408452483000108e+00 6.762779525929000002e+00 1.767542840398000026e+00 3.903764988269000202e+00 4.212483658923999563e+00 2.346503027224999816e+00 5.971735074858999681e+00 6.374382120244000305e+00 7.597521852263000142e+00 5.616831094579000094e+00 6.749502741835000208e+00 5.852300140754000068e+00 7.584055780277999759e+00 4.199789685572000053e+00 5.713792453226999690e+00 1.961300487876000087e+00 7.052996791373000285e+00 3.746866513117999897e+00 1.865644818107000003e+00 6.892186082910000344e+00 5.661696386171000128e+00 3.799785989124000007e+00 4.127584588170000401e+00 5.516241063142000023e+00 5.767849461555999646e+00 7.207557722585000270e+00 3.808775355686000008e+00 5.741808666017999663e+00
1.581487059899999992e-01 3.899230422887999925e+00 3.667647711678999833e+00 4.783250106509999711e+00 7.581305427807000008e+00 1.413016388470000051e-01 4.435748954223000418e+00 7.683049106511999682e+00 3.733625155488999869e+00 4.971943774888000434e+00 3.776191054323999818e+00 3.753363197659000061e+00 4.272918203170000262e-01 4.230698702800000238e-02 1.892596073410000024e-01 4.610741201779999798e-01 7.701111147207000407e+00 3.531614849986000060e+00 1.315381517479999873e-01 3.845489514386999819e+00 1.314552984819999937e-01 5.273981063311000028e+00 3.780493716937999960e+00 7.640117348333999914e+00 2.660813692367999916e+00 2.081268056889999940e+00 1.764340463162000106e+00 2.437412785747000044e+00 5.821631389690000269e+00 1.877182484468999935e+00 7.374473608725000240e+00 1.847139059587000087e+00 1.935890818170999950e+00 7.289875855644000424e+00 5.810648584985999676e+00 1.929882758768999951e+00 2.503828947670999838e+00 2.068491705587999885e+00 5.773528068005999714e+00 2.349655975186999868e+00 5.845819651211000334e+00 5.766570230664999741e+00 7.369124938328999619e+00 1.727748257732000026e+00 5.718368214373000136e+00 7.292698283970000084e+00 5.805130715917999673e+00 5.790382467307000347e+00 2.034364906886000135e+00 1.779530902134000003e+00 7.629478605371000199e+00 9.095210577243999950e+00 1.681074692544000104e+00 2.079709423016999903e+00 2.516045275071999932e+00 8.894527936000000412e-02 2.015578698455999795e+00 2.468666802054999998e+00 2.217885721535000076e+00 3.718107066047000142e+00 9.147056337449999575e+00 1.591881777138000054e+00 5.444266934904000266e+00 2.388550183567999863e+00 6.172014194400000237e-02 5.586551313085999837e+00 2.032365740993999914e+00 6.118151226133000442e+00 7.651593462634999732e+00 9.042400672843999843e+00 5.947232660311000174e+00 1.965838363437999892e+00 1.973424301672999981e+00 3.891912301365000104e+00 1.694253238406999929e+00 2.003636545336000108e+00 5.732008237775000126e+00 3.825086374322999916e+00 9.068598432662000164e+00 6.049125608559999812e+00 5.798314944908000257e+00 1.722769820786999917e+00 3.931346380677000152e+00 5.924830411594999902e+00 7.004425223805999856e+00 1.733738815616999940e+00 7.622472912809000078e+00 4.425370008483000106e+00 2.271984279614000179e+00 1.620117339497999964e+00 6.575345708717000193e+00 7.634337651456999829e+00 1.959027254021999953e+00 6.722365905119000118e+00 1.836684540655999953e+00 3.851470788298999803e+00 4.262302903832000389e+00 2.404587104747999859e+00 5.979355787632999686e+00 6.379918627828000233e+00 7.586509836297000042e+00 5.610987447231999603e+00 6.736963510258999754e+00 5.795172928769000364e+00 7.619757043008999808e+00 4.202467641513999652e+00 5.705707185926000236e+00 1.984445847297999999e+00 7.048533881294999581e+00 3.771249433262000128e+00 1.859934072668000038e+00 6.859594178387999897e+00 5.715580477839999674e+00 3.824730551627999908e+00 4.119996899159000137e+00 5.537462348997999939e+00 5.735758076218999690e+00 7.193156211410999923e+00 3.774878965710999790e+00 5.724646330529999716e+00