-3.035734869980000076e+04
-3.035684681030000138e+04
-3.035677750580000065e+04
-3.035678735230000166e+04
-3.035678759770000033e+04
-3.035671231529999932e+04
-3.035650133529999948e+04
-3.035646255340000062e+04
-3.035645665269999881e+04
-3.035656298790000073e+04
-3.035652274799999941e+04
-3.035652055879999898e+04
-3.035659527320000052e+04
-3.035626283500000136e+04
-3.035614422800000102e+04
-3.035606047029999900e+04
-3.035626234950000071e+04
-3.035579049250000025e+04
-3.035602614739999990e+04
-3.035611624060000031e+04
-3.035573473569999987e+04
-3.035536775100000159e+04
-3.035529379479999989e+04
-3.035535940330000085e+04
-3.035538202119999914e+04
-3.035530238470000040e+04
-3.035510628379999980e+04
-3.035528173550000065e+04
-3.035547620140000072e+04
-3.035511466709999877e+04
-3.035507747920000111e+04
-3.035539628860000084e+04
-3.035553510770000139e+04
-3.035552353139999832e+04
-3.035578705410000111e+04
-3.035603303479999886e+04
-3.035618435350000073e+04
-3.035640805700000055e+04
-3.035624281730000075e+04
-3.035633150880000176e+04
-3.035661721359999865e+04
-3.035661987349999981e+04
-3.035658587990000160e+04
-3.035659725600000093e+04
-3.035660250459999952e+04
-3.035653010200000062e+04
-3.035662260869999955e+04
-3.035687491719999889e+04
-3.035689072279999891e+04
-3.035691637949999858e+04
-3.035673421379999854e+04
-3.035683516089999830e+04
-3.035683438139999998e+04
-3.035681186919999891e+04
-3.035685411820000081e+04
-3.035696733809999932e+04
-3.035693744789999982e+04
-3.035701696219999940e+04
-3.035691527130000031e+04
-3.035684269760000097e+04
-3.035664978189999965e+04
-3.035678795140000148e+04
-3.035665480469999966e+04
-3.035643907899999977e+04
-3.035660322330000054e+04
-3.035643213509999987e+04
-3.035602186860000074e+04
-3.035599528819999978e+04
-3.035598669919999884e+04
-3.035618757929999992e+04
-3.035588660330000130e+04
-3.035576796739999918e+04
-3.035561814600000071e+04
-3.035557593310000084e+04
-3.035545426710000174e+04
-3.035540523319999920e+04
-3.035564681099999871e+04
-3.035543723870000031e+04
-3.035536214340000151e+04
-3.035554060810000010e+04
-3.035543598700000075e+04
-3.035550515929999892e+04
-3.035544293000000107e+04
-3.035575369230000069e+04
-3.035549583509999866e+04
-3.035575279099999898e+04
-3.035577140190000136e+04
-3.035587970990000031e+04
-3.035621462930000052e+04
-3.035622472900000139e+04
-3.035623376780000035e+04
-3.035637426169999890e+04
-3.035639647530000002e+04
-3.035630625149999833e+04
-3.035644106249999822e+04
-3.035652098349999869e+04
-3.035656886479999957e+04
-3.035668560300000172e+04
-3.035678007810000054e+04
-3.035669615210000120e+04
-3.035683955209999840e+04
-3.035681966990000001e+04
-3.035689809959999911e+04
-3.035691148350000003e+04
-3.035683829070000138e+04
-3.035699606290000156e+04
-3.035705895239999882e+04
-3.035683662850000110e+04
-3.035682101749999856e+04
-3.035694451290000143e+04
-3.035689256110000133e+04
-3.035668103709999923e+04
-3.035660100779999993e+04
-3.035668258300000161e+04
-3.035667746700000134e+04
-3.035660625979999895e+04
-3.035662281380000059e+04
-3.035661157979999916e+04
-3.035650469090000115e+04
-3.035618160200000057e+04
-3.035627430670000103e+04
-3.035618726450000031e+04
-3.035578237870000157e+04
-3.035574381590000121e+04
-3.035584579379999923e+04
-3.035583955110000170e+04
-3.035549407280000014e+04
-3.035538006550000136e+04
-3.035545676029999959e+04
-3.035536589680000179e+04
-3.035538267880000058e+04
-3.035531165719999990e+04
-3.035535175410000011e+04
-3.035553023079999912e+04
-3.035566576659999919e+04
-3.035602131500000178e+04
-3.035608257289999892e+04
-3.035575205990000177e+04
-3.035586928099999932e+04
-3.035621406099999876e+04
-3.035599837710000065e+04
-3.035607141730000149e+04
-3.035611436989999856e+04
-3.035626993500000026e+04
-3.035637470749999920e+04
-3.035623835319999853e+04
-3.035631012520000149e+04
-3.035651010450000103e+04
-3.035656028069999957e+04
-3.035651687210000091e+04
-3.035666721970000071e+04
-3.035685343310000098e+04
-3.035672489090000090e+04
-3.035665162019999843e+04
-3.035674540469999920e+04
-3.035680996679999953e+04
-3.035695342979999987e+04
-3.035690219019999859e+04
-3.035686332889999903e+04
-3.035697801540000000e+04
-3.035689260510000167e+04
-3.035683807439999873e+04
-3.035686556520000158e+04
-3.035665863689999969e+04
-3.035659867469999881e+04
-3.035662351649999982e+04
-3.035651605220000056e+04
-3.035645403739999892e+04
-3.035639353770000162e+04
-3.035630471590000161e+04
-3.035613742659999843e+04
-3.035613233509999918e+04
-3.035614546759999939e+04
-3.035617107000000033e+04
-3.035613676069999929e+04
-3.035595475549999901e+04
-3.035583653670000058e+04
-3.035584740830000010e+04
-3.035571312110000144e+04
-3.035546944319999966e+04
-3.035535849999999846e+04
-3.035524153790000128e+04
-3.035545822520000002e+04
-3.035568327969999882e+04
-3.035558238920000076e+04
-3.035570196859999851e+04
-3.035571187080000163e+04
-3.035536272969999845e+04
-3.035541713449999952e+04
-3.035577460159999828e+04
-3.035588123529999939e+04
-3.035582778049999979e+04
-3.035580117619999874e+04
-3.035569363280000107e+04
-3.035608510190000015e+04
-3.035626807280000139e+04
-3.035644192200000180e+04
-3.035630174400000033e+04
-3.035623993329999939e+04
-3.035660365140000067e+04
-3.035669247639999958e+04
-3.035675893999999971e+04
-3.035662370240000018e+04
-3.035673251589999927e+04
-3.035679552129999865e+04
-3.035682530920000136e+04
-3.035685788859999957e+04
-3.035672976209999979e+04
-3.035669105249999848e+04
-3.035672994589999871e+04
-3.035660201600000073e+04
-3.035690807249999853e+04
-3.035679356209999969e+04
-3.035670295469999837e+04
-3.035660299469999882e+04
-3.035669390349999958e+04
-3.035681715510000140e+04
-3.035681349079999927e+04
-3.035662203949999821e+04
-3.035662494969999898e+04
-3.035648228720000043e+04
-3.035652293849999842e+04
-3.035638709540000127e+04
-3.035630469820000144e+04
-3.035621335280000130e+04
-3.035619445569999880e+04
-3.035595716539999921e+04
-3.035577317300000141e+04
-3.035571190710000155e+04
-3.035569580700000006e+04
-3.035575376949999918e+04
-3.035566114459999881e+04
-3.035558056180000131e+04
-3.035582615060000171e+04
-3.035569104240000161e+04
-3.035542676339999889e+04
-3.035528710979999960e+04
-3.035551465119999921e+04
-3.035567155840000123e+04
-3.035538785450000069e+04
-3.035549574619999839e+04
-3.035549230620000162e+04
-3.035537286959999983e+04
-3.035565338859999974e+04
-3.035572201380000115e+04
-3.035595544910000172e+04
-3.035623603079999884e+04
-3.035618092249999972e+04
-3.035625604810000004e+04
-3.035607383320000008e+04
-3.035616250829999990e+04
-3.035647002630000134e+04
-3.035638257599999997e+04
-3.035646616530000028e+04
-3.035668871009999930e+04
-3.035694002230000115e+04
-3.035674638599999889e+04
-3.035667327590000059e+04
-3.035659870379999848e+04
-3.035668184570000085e+04
-3.035675523429999885e+04
-3.035678928390000146e+04
-3.035691107529999863e+04
-3.035692807349999930e+04
-3.035682507550000082e+04
-3.035675947580000138e+04
-3.035678430790000129e+04
-3.035664737880000030e+04
-3.035659770539999954e+04
-3.035668029999999999e+04
-3.035674408499999845e+04
-3.035662968570000157e+04
-3.035671183839999867e+04
-3.035668566189999910e+04
-3.035663686560000133e+04
-3.035652449100000013e+04
-3.035633941780000168e+04
-3.035636527600000045e+04
-3.035626073349999933e+04
-3.035613780639999823e+04
-3.035606141149999894e+04
-3.035594946189999973e+04
-3.035586172660000011e+04
-3.035583925749999980e+04
-3.035592630790000112e+04
-3.035573528100000112e+04
-3.035559611880000011e+04
-3.035567205309999918e+04
-3.035563527049999902e+04
-3.035547331459999987e+04
-3.035540502280000146e+04
-3.035556656989999829e+04
-3.035586914020000040e+04
-3.035584537719999935e+04
-3.035579142399999910e+04
-3.035578837570000178e+04
-3.035604663480000090e+04
-3.035593321719999949e+04
-3.035613134469999932e+04
-3.035590403149999838e+04
