1.836706074430000113e-01 7.931967708999999866e-02 -2.007261322130000081e-01 -5.442898488100000182e-02 -1.039420462359999936e-01 1.432560754800000016e-02 3.336045466700000156e-02 -2.498281666530000056e-01 -1.370905503729999975e-01 -1.661182779089999950e-01 3.049779535330000013e-01 -2.519757763000000060e-03 -1.454596824000000017e-03 -2.865443646199999916e-02 -4.039211145499999739e-02 -9.261445578999999428e-02 -1.936394471899999942e-02 -2.782853203499999900e-02 -3.449023429100000343e-02 4.222987452199999936e-02 -1.907146337700000097e-02 -7.945069640299999569e-02 1.715304780100000009e-02 -5.297019207999999896e-02 -6.271872637880000489e-01 3.684692867289999785e-01 1.630847252809999870e-01 -2.089218420739999971e-01 8.003977006000000394e-01 2.448232072179999941e-01 -3.480721503979999909e-01 -3.775516642619999863e-01 1.053693095290000048e-01 4.710717114310000175e-01 7.302427260600000136e-02 4.325920954299999899e-01 -2.422499903879999916e-01 2.363816829110000073e-01 -8.802724108800000224e-02 -3.854321262609999854e-01 9.510938904250000325e-01 -1.499233467949999954e-01 2.628589668840000115e-01 -3.686091430580000217e-01 1.983587976620000137e-01 -1.144299677595999931e+00 4.481925678999999774e-02 -2.447676759140000047e-01 1.629615736280000116e-01 -2.888097563650000033e-01 2.457592022589999980e-01 1.557351052150000026e-01 1.869239563510000091e-01 -1.156554904700000073e-02 4.901555269289999961e-01 -5.346358089699999872e-02 -9.663184129700000402e-02 3.431906959409999902e-01 -6.835871377999999665e-03 -7.128054009999999730e-04 -3.617760739599999997e-01 2.665578187379999964e-01 2.679821817140000118e-01 5.496190998350000134e-01 -4.320908718359999789e-01 3.121047378800000105e-02 2.342536363709999958e-01 -2.403346040140000028e-01 -1.347829029579999949e-01 -5.948597471759999866e-01 -1.082057892420000000e-01 -1.375935395800000072e-02 1.500051279000000071e-01 -5.304285842929999939e-01 -7.837954304499999969e-02 -2.097078216000000054e-03 -3.583170495140000078e-01 -2.216030838109999956e-01 8.008618477300000205e-01 7.107235209699999667e-02 3.737808182599999807e-02 -3.744191248300000191e-02 -6.262546256630000530e-01 6.001288932300000156e-02 5.401248111999999713e-02 1.491934921710000028e-01 4.331663224499999743e-01 9.578849507400000185e-02 -9.186550779100000064e-02 1.497244760130000130e-01 1.638179221870000035e-01 3.304939609049999949e-01 -1.248944995209999992e-01 -2.244718908889999920e-01 1.571210979780000017e-01 -7.044174085779999483e-01 -1.845742443339999928e-01 -7.578969618399999941e-02 -9.845374279400000150e-02 2.955409840799999924e-02 3.261120484910000061e-01 2.249733275100000013e-02 -3.794220075699999972e-02 2.293014584109999976e-01 -3.116264092399999991e-02 -4.351015258899999794e-02 6.316760398600000659e-02 6.638834677999999601e-03 1.486323985050000129e-01 -1.018367703070000019e-01 -2.891029029800000136e-02 4.361443385899999720e-02 7.686145238899999566e-02 3.432653822099999974e-02 2.094820655050000091e-01 -2.357954193299999918e-02 1.307197577660000054e-01 2.887473483740000124e-01 -6.889102337150000421e-01 -6.937916873499999637e-02
2.253499775020000040e-01 2.825857829789999998e-01 -2.426248256480000032e-01 -4.023569622599999784e-02 -1.468724723279999922e-01 -4.350969976900000147e-02 1.758474403409999998e-01 -5.237355353029999883e-01 -5.624504021800000308e-02 -5.532614615359999766e-01 8.286693211600000275e-01 6.321424451399999811e-02 -2.957113493599999865e-02 -1.126109445690000044e-01 7.499161122399999879e-02 -1.163683026169999996e-01 -5.246814685299999725e-02 -1.614425260569999909e-01 1.446066214560000063e-01 9.651582308200000460e-02 -5.949130211099999677e-02 -2.543027137860000009e-01 -1.449798282679999883e-01 8.191385093999999437e-03 -1.625806341369999908e+00 2.447910038639999897e-01 -2.613847023129999836e-01 2.780491308000000023e-02 1.077592881878000064e+00 -4.028926962200000128e-01 -6.177178356329999787e-01 -1.204780137728999945e+00 1.044694098269999954e-01 1.148473433600000065e-01 9.963404937419999552e-01 9.855347148699999948e-01 7.474008313669999737e-01 1.577184172501999937e+00 7.026946855579999651e-01 2.768693873490000179e-01 -6.608636847300000672e-02 5.152167911739999884e-01 -1.219679440850000018e-01 -5.439418860489999563e-01 1.375495058727000064e+00 1.140694184900000047e-01 5.637260754509999527e-01 -1.466248332086000028e+00 1.640380473739999900e-01 -5.626536926490000035e-01 -6.098149748910000056e-01 2.937893203229999806e-01 2.544826589120000038e-01 6.361803398800000564e-02 3.376706760240000271e-01 -1.192746231399999940e-01 1.407251558850000084e-01 3.329604385239999798e-01 -2.723554256919999972e-01 9.709280850660000350e-01 -3.898570652750000254e-01 2.494288073079999890e-01 -3.902820469999999844e-03 1.541532015859999882e-01 -5.342787810460000175e-01 -1.230407824469999939e-01 2.829643094370000167e-01 -1.569118137480000064e-01 8.133706244780000150e-01 -7.538960885779999455e-01 -2.962677012189999792e-01 -6.727052416600000362e-02 -5.067381621300000305e-02 -5.262668171430000541e-01 -7.961387743200000477e-02 -1.486028220180000137e-01 7.494646266299999360e-02 -1.352825309551999977e+00 -5.587843273210000294e-01 4.801782530499999757e-02 4.563664013200000036e-02 3.923937012400000035e-01 -1.304500174863000073e+00 1.594000460970000088e-01 2.092657969070000068e-01 2.794224023590000106e-01 -7.763272638810000403e-01 1.216448244726000105e+00 2.024320414449999883e-01 2.717910089660000028e-01 5.207511541170000147e-01 1.095035749049999979e-01 -4.394092291260000005e-01 3.559237381199999994e-01 2.339602010519999942e-01 -9.734789119940000512e-01 -1.353078607705000103e+00 1.113899027699999933e-01 -4.688276424480000149e-01 3.550918648360000263e-01 3.997832081070000210e-01 3.306539992829999886e-01 -6.270718149500000005e-02 6.319538175619999754e-01 5.909830979629999703e-01 -3.873708410819999837e-01 2.305462302499999838e-02 -2.105975079100000022e-02 3.268627118460000203e-01 -2.623989708669999810e-01 1.082490863059999975e-01 3.083462103599999837e-01 -1.377311564300000013e-01 5.125941248349999979e-01 -3.585408759970000192e-01 -1.477630254710000091e-01 7.399691845700000215e-02 3.452877075069999968e-01 -1.169903578230000019e+00 -3.023445108210000010e-01
1.743370271609999966e-01 2.090801294980000058e-01 -3.673400805770000166e-01 -3.079003088999999940e-03 -6.943952507099999949e-02 -3.116785470399999897e-02 3.181576793720000129e-01 -5.090192312260000129e-01 -6.031721602899999674e-02 -9.100724001329999480e-01 1.169801130541999967e+00 -8.006414218500000624e-02 -1.003142149610000006e-01 -1.606571535330000022e-01 1.367889753509999862e-01 -1.261995672560000115e-01 -1.511276635499999958e-02 -2.078576801489999959e-01 2.374257816020000078e-01 5.465089130800000056e-02 -6.422057333300000559e-02 -3.380645441239999993e-01 -2.801570029089999747e-01 1.723664608590000091e-01 -3.840548455960000052e-01 3.558478623599999890e-01 -5.694954113619999925e-01 1.036198684439999934e-01 3.004869529879999890e-01 -6.984518352880000336e-01 -1.775524619959999995e-01 -1.347055168478000109e+00 2.330635532810000077e-01 -9.997871444550000541e-01 1.106175523424999918e+00 1.009230084307999986e+00 5.907080627970000553e-01 1.740976010188000078e+00 8.774965756820000129e-01 1.476057480290000057e-01 -9.635776890639999870e-01 5.033303746120000310e-01 -4.524103026729999755e-01 -6.985758228559999505e-01 1.202425472927999950e+00 4.325616354669999941e-01 5.520199294900000053e-01 -1.563913903942000028e+00 3.290370665000000305e-02 -8.655516961129999798e-01 -1.408585180810000004e-01 2.370141183100000007e-02 1.835549389649999974e-01 1.976895763500000069e-02 4.261039386200000251e-02 1.727492205710000062e-01 2.602969609820000030e-01 1.900249465670000026e-01 -5.398927364529999551e-01 5.498700391480000338e-01 1.410696176500000065e-01 3.603125725700000170e-02 -2.348725606590000015e-01 -2.294036174549999862e-01 -6.934527245420000208e-01 -1.673440589899999886e-01 2.226999640679999948e-01 -1.997908145620000131e-01 2.630957480539999893e-01 1.614084982379999922e-01 -1.897604523030000101e-01 -4.082640057399999911e-02 -1.115664422980000015e-01 -1.367711094509999892e-01 -7.655363482900000294e-02 -2.335380147359999992e-01 2.311349418430000136e-01 -3.321161734940000221e-01 -9.585268078230000377e-01 -4.673869617299999946e-02 5.794705515000000279e-02 8.958656287509999538e-01 -1.461827371159999944e-01 2.272074429439999987e-01 1.154252685260000050e-01 2.282234704199999908e-01 -9.613445382780000381e-01 4.022844985300000342e-02 2.349127780330000081e-01 4.611272807930000273e-01 5.923032387350000150e-01 -1.491267322319999866e-01 -5.015248315410000268e-01 9.350672124579999522e-01 -7.428637124299999894e-02 -4.288124157409999859e-01 -7.208166688049999493e-01 4.147386384219999833e-01 -4.931947907940000264e-01 4.145183215509999908e-01 -2.281138488259999986e-01 3.846032938500000276e-01 -2.157450163000000209e-03 7.035853397200000359e-01 2.254868048479999887e-01 -2.525044841340000068e-01 9.114114155899999403e-02 -5.443301515900000193e-02 3.697885517639999953e-01 -1.780651646679999867e-01 1.338039938199999945e-01 3.696139330009999835e-01 -1.675308002860000089e-01 7.173310725449999481e-01 -7.628555389819999810e-01 -3.045671300950000271e-01 -4.386596730000000104e-04 2.112585623019999914e-01 1.783152169639999896e-01 -3.600918514099999967e-01
5.169769269700000280e-02 6.145878348000000102e-02 -4.694955672900000265e-01 4.974109940000000360e-04 -1.252908141699999971e-02 -1.043879917740000024e-01 3.456169811870000164e-01 -3.509052160389999897e-01 -2.741853868400000172e-02 -1.058265455773000019e+00 1.276068146887999966e+00 -2.517310722919999799e-01 -1.788376671309999943e-01 -2.514831991500000030e-01 1.492698939379999978e-01 -9.075304655499999429e-02 3.741089958399999860e-02 -1.862555866979999919e-01 2.265655506829999943e-01 1.295472863899999917e-02 -3.625955171800000071e-02 -2.623832255710000227e-01 -2.797421686009999853e-01 3.380963775629999835e-01 7.789042471610000407e-01 4.564692855210000233e-01 -4.263278371859999805e-01 -2.696577412919999861e-01 -3.979679607669999730e-01 -7.941916606479999530e-01 5.257285983560000542e-01 -7.269963066710000144e-01 2.259561812439999928e-01 -1.178111051539999954e+00 5.085077403090000336e-01 4.326618779490000177e-01 -8.825497190359999911e-01 6.033284488300000303e-01 3.006630966100000135e-01 -3.593503162760000036e-01 -8.996336447910000533e-01 2.938937512520000128e-01 1.767809865380000067e-01 -5.582685714889999984e-01 4.881773567189999774e-01 -2.282398245160000005e-01 1.326945513910000041e-01 -3.902409265690000018e-01 -1.861216803100000095e-01 -9.239924506890000444e-01 8.223156574490000370e-01 -3.597119347750000196e-01 -3.514800537599999802e-02 -1.351882367199999935e-01 -1.947771082210000004e-01 3.716344524849999886e-01 2.435143398800000136e-01 -4.431929242000000324e-02 -5.717066271740000039e-01 -5.720854833780000259e-01 3.391955414169999794e-01 -1.482417941710000020e-01 -3.009494722889999863e-01 -4.408951399939999849e-01 2.221754939800000064e-02 -3.733695956900000279e-02 5.140665593299999919e-02 -1.840042668029999995e-01 -4.542560980270000104e-01 5.795070646159999894e-01 -2.856443899899999833e-02 5.133768751299999655e-02 -8.501343530499999579e-02 2.159306791499999989e-02 -5.584231643100000253e-02 -3.415387557289999987e-01 1.753057022520000119e-01 9.716136199449999511e-01 2.965874497989999803e-01 -6.319569384400000600e-02 2.520971321999999903e-02 8.762146382700000125e-01 6.382321114960000097e-01 2.499993633550000038e-01 -1.281358642890000066e-01 1.213633069029999983e-01 1.288443074600000016e-02 -9.157587274620000439e-01 1.682941777059999977e-01 4.450751211969999899e-01 3.203125864859999727e-01 -1.119253076739999964e-01 -3.010255954459999939e-01 1.004057046206999981e+00 -4.915168940710000212e-01 1.020948737449999949e-01 1.367891026014999900e+00 5.892750103410000495e-01 -1.068927651079999985e-01 -4.214634095199999708e-02 -4.461158301040000218e-01 1.005942834019999954e-01 -4.991205839599999888e-02 4.776171531749999755e-01 -9.279513840399999935e-02 3.917129200949999723e-01 1.622780163339999915e-01 -5.457211598000000219e-02 2.367926557360000017e-01 -1.322204837619999906e-01 1.077153428779999977e-01 5.499495154499999677e-02 -3.704178288300000177e-02 -1.802357070529999883e-01 -2.172921339199999913e-01 -4.514856202779999883e-01 -8.278735761899999601e-02 -1.106934842720000006e-01 1.265982212106999905e+00 -3.007969897219999744e-01
-1.493890724670000059e-01 2.806912094800000090e-02 -4.987845494009999769e-01 -5.146830145499999704e-02 3.637519350800000328e-02 -2.803047788199999890e-01 2.208462680309999926e-01 -1.640835698260000031e-01 6.488185793200000606e-02 -8.682794197240000234e-01 1.079898039277999988e+00 -3.025006201570000219e-01 -2.607773078260000044e-01 -4.204289886820000155e-01 1.822551591179999986e-01 -2.603977869199999851e-02 5.563311782199999861e-02 -1.567695325600000078e-01 1.343367781420000129e-01 3.281878920700000146e-02 2.110355267000000104e-02 -1.134243757619999987e-01 -1.927933465230000087e-01 4.060176035329999822e-01 8.563493432400000049e-01 8.479714316000000474e-02 3.889620992799999732e-02 -4.492443152319999800e-01 -5.068313044040000381e-01 -2.776026244950000055e-01 9.414073990600000386e-01 2.987782461219999908e-01 2.883265354840000017e-01 2.715634013259999868e-01 -4.435075041989999800e-01 -3.313206060509999995e-01 -5.528437556759999705e-01 -3.783051331580000176e-01 -2.164645205899999938e-02 -7.495595650149999845e-01 -3.694114759029999973e-01 -2.280492752230000031e-01 1.022931548572000082e+00 3.545310940559999735e-01 -2.104772700130000118e-01 -2.383707831899999907e-01 -5.021843285399999468e-01 1.104617351087000099e+00 -1.929640970389999988e-01 -6.291514428279999516e-01 3.152981058600000108e-01 -2.216813663810000001e-01 -3.357446520510000143e-01 -2.749509273990000113e-01 -3.044954721290000221e-01 -1.293629247910000057e-01 1.821514785589999907e-01 -3.660112820759999774e-01 -3.927385786500000031e-01 -5.344682401100000479e-01 -1.771589342999999993e-03 -1.211425805450000032e-01 -1.647270656429999924e-01 -4.330075405530000032e-01 1.128991844343999906e+00 2.292316363999999940e-01 -1.585896888439999874e-01 2.589618396200000019e-02 -1.277901868599999949e-02 -2.319725713330000050e-01 1.013527311000000063e-02 1.547884663569999986e-01 -2.465727628399999941e-02 3.944117471710000267e-01 -4.102375907000000398e-03 -2.508590325150000244e-01 -2.578617088000000057e-02 5.919946613890000320e-01 1.173239959688999967e+00 -4.458904416199999804e-02 -6.054728217000000107e-03 3.975660467580000024e-01 1.386962957129999896e-01 2.411754525070000099e-01 -3.630865643649999752e-01 3.172244248500000197e-02 7.476363173610000024e-01 -5.137387885559999701e-01 1.384856051020000034e-01 1.469013178440000122e-01 -2.193739541070000021e-01 2.602245951759999953e-01 5.023010972999999643e-03 5.616809134060000153e-01 -5.620130345770000257e-01 5.449059312990000015e-01 1.259633194260999955e+00 4.618236366139999993e-01 1.183991962759999989e-01 -5.194488276769999580e-01 2.069595521510000091e-01 -2.607430964610000235e-01 -1.680706463630000091e-01 9.801366674200000240e-02 -5.719133519700000251e-02 4.077851335329999993e-01 1.989829081670000110e-01 -9.422545747999999666e-03 -4.587344082300000292e-02 -9.436742205999999744e-02 3.543377131299999677e-02 -3.605824390290000014e-01 1.782717598920000035e-01 -1.437569254283999953e+00 8.385681139859999522e-01 -4.369514998119999882e-01 -1.326031677600000014e-01 -2.503268475509999869e-01 5.058767468610000373e-01 -2.169701517010000080e-01
-3.781353307699999999e-01 1.943602660700000095e-02 -4.985268191119999748e-01 -6.898491373600000587e-02 1.553826771609999879e-01 -4.513078354860000085e-01 1.468489649409999986e-01 2.303884656999999943e-03 1.476145366140000081e-01 -4.934701139800000136e-01 7.541415726919999951e-01 -2.488885471939999983e-01 -3.749523256319999831e-01 -5.990942385619999477e-01 2.256648807119999989e-01 3.293018071800000307e-02 8.156530636400000089e-02 -1.210533298010000036e-01 2.833015339699999913e-02 5.258528452399999914e-02 9.206350901199999992e-02 -3.046063374000000136e-03 -1.261344441280000117e-01 3.839769632480000139e-01 -3.949660367599999722e-02 -6.741135992579999625e-01 5.118839234440000219e-01 3.724658916799999941e-02 -1.942244713600000117e-01 3.773198502510000107e-01 6.358406896980000056e-01 9.486487491770000391e-01 1.429768987220000065e-01 1.069673056462000060e+00 -1.031589196045000101e+00 -6.656846889280000346e-01 1.636401076802000087e+00 -1.145708184172999911e+00 4.349641756500000067e-02 4.164090448100000313e-02 5.440935838770000199e-01 -8.422486026269999648e-01 1.136616529002999920e+00 9.545347610700000152e-01 -3.487683361910000057e-01 9.278811662749999467e-01 -6.549991787550000222e-01 1.091922308890999949e+00 4.794315108799999947e-02 5.393821584399999952e-02 -8.430645251539999885e-01 6.625448309779999878e-01 -4.974293114739999910e-01 -2.208554370259999955e-01 -2.651519646639999839e-01 -6.514122060799999447e-01 1.164841553790000039e-01 -6.684257839280000058e-01 1.610819798600000158e-02 2.524928599540000040e-01 -2.065545213649999934e-01 5.588447177300000235e-02 8.452814465400000643e-02 -2.409267404000000057e-01 8.819224147090000132e-01 5.537327130370000017e-01 -2.559155856570000109e-01 2.319623214200000061e-01 4.015100963289999769e-01 -5.143234274989999522e-01 3.423111571600000180e-02 1.624637878609999919e-01 -1.256366322299999963e-02 6.270394486700000547e-01 3.389786150699999889e-02 -1.096358302300000018e-02 -1.621505779899999888e-01 -8.972588447200000039e-02 -5.089531538799999671e-02 -3.353996485910000214e-01 1.626826163200000008e-02 -2.542055122410000201e-01 -4.784175896449999743e-01 1.858464411980000064e-01 -3.380490312889999904e-01 4.254359593899999931e-02 3.955593668049999789e-01 5.994583823710000203e-01 1.314806328179999872e-01 -2.157881867039999901e-01 -6.072759102370000051e-01 4.524055159329999909e-01 1.964466757389999874e-01 -3.833423555999999899e-02 -1.996896279239999961e-01 8.623620163649999837e-01 -7.731138317610000144e-01 2.275224508710000093e-01 5.771273257299999737e-02 -4.687580359519999962e-01 4.176235725820000022e-01 -4.003981247699999746e-01 -9.503454158799999607e-02 -2.826522660940000153e-01 -5.104054627970000535e-01 -3.455229458560000189e-01 1.688912504160000050e-01 3.297302309700000239e-02 -2.927579787219999896e-01 2.430854908400000014e-02 -6.074279642000000173e-02 -3.414918994350000236e-01 5.755403074549999554e-01 -6.702850641619999550e-01 3.681603542049999844e-01 -9.139670397000000668e-02 -1.486429080999999985e-01 -2.331661706310000082e-01 -3.296826632980000005e-01 -3.281087564500000109e-02
-4.725722529120000015e-01 -1.259326820849999973e-01 -3.838025132719999899e-01 -5.359763214000000039e-03 3.123673014269999770e-01 -5.811073168489999663e-01 2.772546675779999914e-01 1.116781537780000000e-01 1.976965795229999878e-01 -1.811229916079999946e-01 5.279422345369999547e-01 -1.426412713369999974e-01 -4.308272140289999830e-01 -6.391312879799999624e-01 2.400225261589999937e-01 7.162588286000000359e-02 1.539682279729999992e-01 -6.172306740900000005e-02 4.474663206999999858e-03 1.514600733400000079e-02 1.052374092199999944e-01 5.629703761399999784e-02 -1.086233514269999978e-01 3.225346491380000069e-01 -8.785911329910000012e-01 -1.230866386001000068e+00 5.221415794979999969e-01 4.003998811059999996e-01 3.752917289339999796e-01 5.706153240769999968e-01 3.442087612849999978e-01 8.194757872850000346e-01 -1.295276584929999919e-01 3.868665981539999854e-01 -6.551913172950000197e-01 -7.220479686970000532e-01 2.459004741259999793e+00 -1.600353296540000025e+00 1.177238689809999989e-01 8.726316982120000398e-01 8.516374393429999579e-01 -8.471965228229999534e-01 6.927215454159999508e-01 8.353209049809999787e-01 6.205233574900000104e-02 1.039077148118999983e+00 -2.877642100159999994e-01 4.437844221230000108e-01 3.429367154519999961e-01 7.490979698540000120e-01 -3.493788985449999829e-01 1.080774525577000045e+00 -3.698018737830000013e-01 -1.430213600390000117e-01 -1.428092116549999901e-01 -4.197204559130000012e-01 -3.065623274000000165e-03 -6.858965567550000531e-01 5.119927504650000349e-01 2.518527460699999942e-02 1.589385050500000118e-02 1.589438401300000137e-01 2.602197180220000017e-01 1.799534089000000064e-03 -6.653640861530000228e-01 5.570485491309999926e-01 -2.395484613149999886e-01 2.856791360979999972e-01 -1.516475594059999987e-01 9.518786656899999588e-02 5.840332173800000248e-02 4.289530939600000314e-02 2.615454116599999837e-02 -9.434009551499999979e-02 6.790072306699999893e-02 1.288275595679999885e-01 -1.022898849050000031e-01 -2.291721974600000045e-02 -8.248135837290000438e-01 -5.145623606610000289e-01 4.606516791899999824e-02 -7.644814247510000049e-01 2.040342222450000076e-01 9.464970106999999466e-02 -2.221599950189999950e-01 1.233103709560000039e-01 -1.008780561320000019e-01 7.911713946109999451e-01 4.307729984499999998e-02 -3.651147251840000107e-01 -5.831888659699999700e-01 1.786354978999999971e-03 1.969558953140000124e-01 -5.129002901760000288e-01 4.155362781529999827e-01 3.163534827419999806e-01 -1.239682320927000037e+00 7.712208370000000167e-03 5.194820420400000222e-02 -1.319520455599999982e-02 -1.660943611930000008e-01 -2.198774147020000069e-01 9.574861564400000136e-02 -5.838095665200000450e-01 -7.050988981870000005e-01 -5.805769184829999707e-01 -3.469890655900000065e-02 7.721539000299999789e-02 -2.928609940729999805e-01 2.037562050770000133e-01 -7.356176881400000589e-02 -2.031258395839999897e-01 6.693863496980000383e-01 7.456575296070000469e-01 -7.539591480580000171e-01 4.169819246359999787e-01 -1.315483420509999946e-01 -1.553850581869999914e-01 -2.539818952910000149e-01 7.025254540700000272e-02
-3.231492232470000170e-01 -3.104383747119999759e-01 -1.269596638749999895e-01 3.794453722599999690e-02 4.251786872319999744e-01 -6.783006254700000293e-01 5.324034303279999714e-01 1.446679902349999880e-01 2.203261591700000077e-01 -3.310145742799999735e-02 4.600175792730000213e-01 -9.082134737800000301e-02 -2.490300782069999885e-01 -4.350215963380000272e-01 2.072911426210000130e-01 1.078398212939999934e-01 2.041764937910000022e-01 2.606418112100000045e-02 1.054197431679999991e-01 -2.257342231699999840e-02 3.950242479600000328e-02 7.123900312299999427e-02 -1.074219025970000047e-01 2.601413079159999864e-01 -5.637465149260000308e-01 -1.140391470223999892e+00 2.915874299439999984e-01 -7.653046173800000240e-02 6.979030436280000416e-01 2.987278558220000102e-01 7.916250136189999509e-01 1.402388217589999875e-01 -2.884439696509999984e-01 -6.536918201710000265e-01 -1.698491288500000168e-02 -5.137269418780000541e-01 1.018492844297999911e+00 -1.022385873853000060e+00 2.949784189399999937e-02 5.589754985449999491e-01 4.107764258659999945e-01 -3.029173790959999724e-01 1.575734112470000003e-01 5.081869185730000238e-01 6.327120748010000018e-01 1.760618939600000141e-02 -1.421532868000000005e-02 -4.447332487539999990e-01 3.544140041850000200e-01 8.891009876530000522e-01 8.024635196370000223e-01 3.548697835999999745e-02 -6.184725985899999778e-02 -2.215387811510000082e-01 -4.935320867000000250e-02 1.473134910970000100e-01 -8.990061543400000577e-02 -4.374958406700000246e-01 6.226547278970000487e-01 -4.476684255450000260e-01 4.009704170389999933e-01 1.068579567830000021e-01 3.233383407700000101e-01 2.530670260380000203e-01 -1.500807262327999991e+00 1.232850410530000052e-01 -1.673449328299999872e-01 2.681262667139999722e-01 -3.731021339789999947e-01 6.144976363749999893e-01 8.735041037999999314e-02 -1.248676963920000021e-01 7.768420726399999365e-02 -9.637216123730000250e-01 1.153737791379999961e-01 1.674002485749999936e-01 6.343015340600000052e-02 -1.003620737630000065e-01 -9.169476056099999661e-02 -2.702200248750000200e-01 7.361528283500000380e-02 -9.412871064229999529e-01 4.996731493009999858e-01 -7.547435832799999356e-02 -8.921601668199999335e-02 1.817244453059999876e-01 -9.854397535599999924e-02 -3.769674002999999773e-01 -2.484094566139999904e-01 -2.543172628900000065e-01 -2.610822105310000030e-01 -3.616478863570000146e-01 6.859624278900000593e-02 -7.794806268889999945e-01 8.868959035519999867e-01 -9.472588414439999660e-01 6.669498617699999576e-02 -1.143851879690000045e-01 1.098481100959999984e-01 4.197213693249999822e-01 -2.823421592559999804e-01 1.786676199779999863e-01 9.555457246399999549e-02 -6.684775103990000522e-01 3.715009551049999748e-01 1.324176022759999960e-01 -2.575482261079999891e-01 1.215388749230000009e-01 -5.885948553999999916e-02 3.237649598130000195e-01 2.219305798500000038e-02 -1.484843187129999964e-01 3.416626884569999856e-01 8.831976940650000385e-01 -5.996728699390000417e-01 6.378117771860000174e-01 -9.196458587299999321e-02 -1.168402068570000008e-01 -2.486734101570000077e-01 7.143298979800000170e-02
-2.637698642800000159e-02 -3.784297880060000230e-01 1.084936331740000010e-01 1.438929153599999983e-02 4.257681328730000270e-01 -6.861729028790000129e-01 8.437293968729999705e-01 1.141962706820000006e-01 1.778867394049999939e-01 2.671399568999999977e-03 4.448062149299999990e-01 -2.044104080290000125e-01 6.261321718399999459e-02 -1.732990054140000069e-01 1.475134594070000027e-01 1.482356075240000015e-01 1.503480510140000059e-01 1.191245783579999995e-01 2.747758699289999940e-01 -6.424136248999999868e-03 -3.954525905399999819e-02 6.748687989099999562e-02 -7.930171194500000575e-02 2.330668068569999862e-01 -2.710320332680000166e-01 -3.827241711489999809e-01 -2.717319382000000019e-02 -7.901410201490000063e-01 1.599981129509999989e-01 -2.078382141929999982e-01 5.583856100659999600e-01 -4.801250168719999878e-01 -3.095151153719999937e-01 -5.640782012080000074e-01 4.135471338000000219e-01 -2.472361818700000158e-02 -1.843460333794999961e+00 -2.133509130729999981e-01 -1.500327034799999945e-02 -8.338298187970000219e-01 -3.214210295909999959e-01 3.591436524139999809e-01 -3.039304553370000272e-01 3.277120972340000216e-01 3.546890520859999896e-01 -1.048631342193000027e+00 -1.041300210720000063e-01 -1.309862345815999918e+00 2.114705586500000012e-01 5.627352147059999643e-01 5.969539591539999579e-01 -8.281068045599999650e-01 2.441327957799999948e-01 -2.579167756790000099e-01 -2.117807101099999922e-02 3.192251801739999784e-01 -5.105868234299999753e-02 -8.097971120899999375e-02 2.595593322409999737e-01 3.482441203300000176e-01 2.982314566490000263e-01 -4.061513006000000078e-03 3.663134021130000084e-01 4.901448127849999947e-01 -4.747912157200000205e-02 -2.999160791839999840e-01 -3.519456192499999941e-02 1.281078639350000103e-01 2.294503450669999889e-01 5.674424837400000171e-02 6.540885309900000555e-02 -2.707961140710000159e-01 1.471627406609999911e-01 -6.719835036939999506e-01 1.675706282730000107e-01 1.273984955459999957e-01 1.642124271529999957e-01 -6.150511445090000029e-01 9.326639877219999875e-01 9.956013596399999888e-02 8.039206019700000094e-02 -5.725575871320000010e-01 -5.999739967580000055e-01 -2.988140833599999824e-01 9.933836724200000023e-02 1.512839558830000042e-01 -1.696461172859999866e-01 -9.887004201000000325e-01 -5.081216293870000067e-01 -2.289765626599999868e-02 2.236466297249999902e-01 -3.409224817639999738e-01 -9.730358173799999455e-02 -5.051976185519999607e-01 8.710167446780000544e-01 -9.816976233730000390e-01 1.764658853668999994e+00 -1.574959094539999938e-01 1.195721842820000047e-01 6.966480694469999735e-01 2.505679856069999989e-01 5.612115648340000318e-01 -8.499782359099999907e-02 -5.180476483860000370e-01 1.458664799741999918e+00 7.238989645719999810e-01 -3.171630029299999931e-01 8.202153535299999687e-02 2.666637247499999974e-01 2.995626640060000123e-01 1.310344694059999981e-01 -4.454562342099999822e-02 -1.004728200150000056e-01 2.278751799400000055e-01 9.207803051590000010e-01 4.083013711249999789e-01 -5.764635222600000136e-02 -8.880007484900000192e-02 -4.551231174939999735e-01 7.776636734099999504e-02