-2.681564575966659536e+00 1.163467288108904096e+00 2.679997867593083338e+00 1.163467288108904096e+00 1.104459948995095253e+01 -1.253016271483702093e+00 2.679997867593083338e+00 -1.253016271483702093e+00 1.370283268274995692e+01
-7.127817354841323727e+00 1.422554225443497744e+00 2.635322474574842477e+00 1.422554225443497744e+00 1.040125662795842842e+01 -9.939802875877747912e-01 2.635322474574842477e+00 -9.939802875877747912e-01 1.212815790997390941e+01
-8.847768596621213177e+00 1.138690443534459362e+00 2.541686917518714672e+00 1.138690443534459362e+00 7.060868371324779957e+00 -7.477176189172780596e-01 2.541686917518714672e+00 -7.477176189172780596e-01 9.088306548461790868e+00
-4.352334979942105164e+00 1.234987995149930962e+00 2.603085930493466371e+00 1.234987995149930962e+00 4.566918607648856820e+00 -6.986625597232388740e-01 2.603085930493466371e+00 -6.986625597232388740e-01 8.871292275501312830e+00
-5.033235455200004260e+00 1.292352976299640632e+00 2.718835149331176648e+00 1.292352976299640632e+00 2.370922693768756417e+00 -7.244034456059380567e-01 2.718835149331176648e+00 -7.244034456059380567e-01 8.481524412443548044e+00
-1.352382140373521935e+01 1.516532672796997883e+00 2.784891949160410274e+00 1.516532672796997883e+00 -1.381900916559894776e+00 -7.924585126031465920e-01 2.784891949160410274e+00 -7.924585126031465920e-01 2.565485081317850913e+00
-1.747053941796597698e+01 2.181030945971144330e+00 2.554250192435062239e+00 2.181030945971144330e+00 -6.077955613408940749e+00 -9.984984142223990444e-01 2.554250192435062239e+00 -9.984984142223990444e-01 -2.364540773084778280e+00
-1.385444811953095900e+01 2.605601310461449049e+00 2.337065325716282782e+00 2.605601310461449049e+00 -9.826976810373492910e+00 -1.108304012043118014e+00 2.337065325716282782e+00 -1.108304012043118014e+00 -1.934142081078924269e+00
-8.008194168045235983e+00 2.295103702143594493e+00 2.662045757783089162e+00 2.295103702143594493e+00 -1.320718263640019075e+01 -1.259830163369695111e+00 2.662045757783089162e+00 -1.259830163369695111e+00 -2.017076446577944715e+00
-1.222897282549760867e+01 1.142148921102827730e+00 3.015755162107124576e+00 1.142148921102827730e+00 -1.414181029872887052e+01 -1.282348686044098240e+00 3.015755162107124576e+00 -1.282348686044098240e+00 -5.224807864280061054e+00
-1.553720339212280166e+01 3.805246313638644406e-01 2.755148927374206469e+00 3.805246313638644406e-01 -1.084382231481060899e+01 -1.042540963112497332e+00 2.755148927374206469e+00 -1.042540963112497332e+00 -2.961054638538346495e+00
-1.132826193729416175e+01 9.141830745687291870e-02 2.336943376896269076e+00 9.141830745687291870e-02 -2.877818122331120332e+00 -1.252355668231601715e+00 2.336943376896269076e+00 -1.252355668231601715e+00 7.626258426276823599e+00
-4.372695137029523949e+00 8.973927109721760997e-01 2.079410993739886582e+00 8.973927109721760997e-01 6.011906541161306627e+00 -1.660563504273106172e+00 2.079410993739886582e+00 -1.660563504273106172e+00 1.529457023117284464e+01
-2.904598818370510038e+00 2.240309624196889171e+00 1.193430030959525379e+00 2.240309624196889171e+00 1.436492618291353907e+01 -2.003350433386766216e+00 1.193430030959525379e+00 -2.003350433386766216e+00 1.605999998683256536e+01
-7.087229079347194372e+00 1.138688714301386407e+00 6.716853729704959086e-01 1.138688714301386407e+00 1.709380356418074243e+01 -2.144869537914512403e+00 6.716853729704959086e-01 -2.144869537914512403e+00 1.541588123915007102e+01
-8.310471489425294678e+00 -6.215914435822833539e-01 -4.394272471835374283e-01 -6.215914435822833539e-01 1.646480271993530664e+01 -1.797322007108430819e+00 -4.394272471835374283e-01 -1.797322007108430819e+00 1.246405837983266807e+01
-4.967244603693728777e+00 -4.239948655015443046e-01 -3.989003570010437594e-01 -4.239948655015443046e-01 1.138913050011089467e+01 -1.753367309057787260e+00 -3.989003570010437594e-01 -1.753367309057787260e+00 7.430619127743185004e+00
1.162906804086501628e-01 6.329028780001257903e-01 8.913357738572895705e-01 6.329028780001257903e-01 8.334441143418072073e+00 -1.652911567527833636e+00 8.913357738572895705e-01 -1.652911567527833636e+00 4.985680144808709358e+00
-5.111628117986688480e+00 1.742874250966171656e+00 1.812113220408838155e+00 1.742874250966171656e+00 1.900332549171127594e+00 -1.089220847747484955e+00 1.812113220408838155e+00 -1.089220847747484955e+00 9.971087981521546961e-01
-1.639940212474999370e+01 1.739946010014388422e+00 1.706849489761520511e+00 1.739946010014388422e+00 -8.302986668138616633e-01 -1.088713194526161665e+00 1.706849489761520511e+00 -1.088713194526161665e+00 -2.195783383228521457e-01
-1.811131150257805800e+01 2.249254233934538938e+00 8.011132630771337082e-01 2.249254233934538938e+00 -1.041101947699047514e+00 -2.128872389689203004e+00 8.011132630771337082e-01 -2.128872389689203004e+00 7.054198802679518820e+00
-1.230224672400014008e+01 2.577527489323241827e+00 6.874856587472053526e-01 2.577527489323241827e+00 -1.911946698445252668e+00 -2.008935788519143895e+00 6.874856587472053526e-01 -2.008935788519143895e+00 9.939950641948414045e+00
-9.055363366486412602e+00 1.637590825072519962e+00 1.303101202346495846e+00 1.637590825072519962e+00 -7.455396175866354724e+00 -1.180359937687568639e+00 1.303101202346495846e+00 -1.180359937687568639e+00 5.170085880578810134e+00
-1.282302647490121039e+01 1.677745952860532741e+00 2.447788735086985579e+00 1.677745952860532741e+00 -1.226121951235514729e+01 -1.583969556285163227e+00 2.447788735086985579e+00 -1.583969556285163227e+00 8.883220470235638766e-01
-1.678054277240469716e+01 2.199606925769790333e+00 3.479147674658471523e+00 2.199606925769790333e+00 -1.494278425067034632e+01 -2.512227302281259789e+00 3.479147674658471523e+00 -2.512227302281259789e+00 1.438519441815915956e+00
-1.352074276246413298e+01 2.331395356735954216e+00 3.647605399942123405e+00 2.331395356735954216e+00 -1.041270151143751654e+01 -2.902763481302335080e+00 3.647605399942123405e+00 -2.902763481302335080e+00 -1.029295085080972560e+00
-7.830084490763039362e+00 3.113159720479405923e+00 3.340932572888083651e+00 3.113159720479405923e+00 -3.824066922546778269e-01 -3.252072771191071965e+00 3.340932572888083651e+00 -3.252072771191071965e+00 -3.665756597413941442e+00
-4.812287848348279162e+00 2.477864767098465482e+00 2.789793986772520551e+00 2.477864767098465482e+00 4.118053933531395039e+00 -3.114770068668060610e+00 2.789793986772520551e+00 -3.114770068668060610e+00 -2.399222376811627477e-01
-8.339635018379565778e+00 5.294677568643039178e-01 2.614799090476290555e+00 5.294677568643039178e-01 1.060052598154741332e+01 -2.340222767945174809e+00 2.614799090476290555e+00 -2.340222767945174809e+00 5.089824398617762924e+00
-1.092252415158162648e+01 2.633599931327337829e-01 2.648553473416404902e+00 2.633599931327337829e-01 1.601590063699935484e+01 -1.322112238397904260e+00 2.648553473416404902e+00 -1.322112238397904260e+00 8.619967477496507158e+00
-1.256879268866344113e+01 1.462749925465368861e+00 2.595242572605956255e+00 1.462749925465368861e+00 1.280675383837474968e+01 -7.791764064875889018e-01 2.595242572605956255e+00 -7.791764064875889018e-01 7.277829608925974192e+00
-7.358473763774104448e+00 1.831067372784455749e+00 1.994752992268298941e+00 1.831067372784455749e+00 8.894402582460617879e+00 -9.878763537361483493e-01 1.994752992268298941e+00 -9.878763537361483493e-01 2.215718887554218863e+00
-2.968153689237244652e+00 1.301929803812278408e+00 1.662755599019108965e+00 1.301929803812278408e+00 6.888177688591797576e+00 -1.451576042050206850e+00 1.662755599019108965e+00 -1.451576042050206850e+00 1.873610546684646661e+00
-6.618394631560736485e+00 4.662872140003412325e-01 2.196780954532041363e+00 4.662872140003412325e-01 3.174348818706952180e+00 -1.378461538244679430e+00 2.196780954532041363e+00 -1.378461538244679430e+00 -5.082852114390467024e-01
-1.490128760212742876e+01 2.998817143223644899e-01 3.060274387349380731e+00 2.998817143223644899e-01 -5.132904003188594189e-01 -6.539134440923121128e-01 3.060274387349380731e+00 -6.539134440923121128e-01 -5.853849928784266687e+00
-1.357736736530833177e+01 6.867807830756691434e-01 3.200583145058758738e+00 6.867807830756691434e-01 3.332440434774878724e-01 -1.918934826895830892e-01 3.200583145058758738e+00 -1.918934826895830892e-01 -5.659658878057382658e+00
-7.352869741040891860e+00 1.032102493689446510e+00 3.164353675957440437e+00 1.032102493689446510e+00 3.514318657089958275e+00 -1.959278881033562625e-01 3.164353675957440437e+00 -1.959278881033562625e-01 1.549988704428863773e-01
-7.917988922018389886e+00 7.319052683696112283e-01 2.324372027490207770e+00 7.319052683696112283e-01 3.070792030915539428e+00 3.001546819380762968e-02 2.324372027490207770e+00 3.001546819380762968e-02 3.024322618334077006e+00
-1.383102431795556875e+01 1.416790461700820902e+00 7.369074769710959316e-01 1.416790461700820902e+00 2.131486805418391750e+00 9.063787928022327689e-01 7.369074769710959316e-01 9.063787928022327689e-01 3.484326731269801858e+00
-1.488916519096587621e+01 2.130217814100948903e+00 7.656145014058794544e-03 2.130217814100948903e+00 2.221180518992456610e-01 1.455996625998254412e+00 7.656145014058794544e-03 1.455996625998254412e+00 2.353607965802707813e+00
-7.546860945812183807e+00 1.806482679616663756e+00 -9.418860447658845142e-03 1.806482679616663756e+00 -6.904531816274777078e-01 8.015557616463713231e-01 -9.418860447658845142e-03 8.015557616463713231e-01 2.914686378975427594e+00
-1.225425020440856105e+00 1.688977669698203954e+00 2.934761658253238759e-01 1.688977669698203954e+00 1.270101722494739516e+00 -3.887843755869547779e-01 2.934761658253238759e-01 -3.887843755869547779e-01 5.654444302402528599e+00
-5.476199985248155322e+00 2.520482255108206893e+00 4.875407692908648727e-01 2.520482255108206893e+00 3.316291843938463657e+00 -1.360475631258156737e+00 4.875407692908648727e-01 -1.360475631258156737e+00 5.116179137713958269e+00
-1.076763141401973378e+01 2.941210237436034713e+00 5.936537123943800287e-01 2.941210237436034713e+00 4.234951918502535051e+00 -1.880815941980456873e+00 5.936537123943800287e-01 -1.880815941980456873e+00 2.578556306548389632e+00
-7.834741381678554717e+00 2.996836420872743378e+00 7.851375739379907737e-01 2.996836420872743378e+00 7.111698522657888155e+00 -1.764653828941169067e+00 7.851375739379907737e-01 -1.764653828941169067e+00 2.529434807248263528e+00
-2.419779954865822980e+00 2.530876605486087616e+00 1.260912966477080621e+00 2.530876605486087616e+00 1.015481935786911372e+01 -1.533731104404265411e+00 1.260912966477080621e+00 -1.533731104404265411e+00 5.167891029348520959e+00
-4.970843615385346581e+00 1.691525064854210836e+00 2.409185130079776194e+00 1.691525064854210836e+00 9.049899485122567810e+00 -1.517961903243117749e+00 2.409185130079776194e+00 -1.517961903243117749e+00 6.213560729586413700e+00
-1.290497337585891025e+01 1.718480641585388380e+00 3.241441948397893125e+00 1.718480641585388380e+00 5.205166381527122077e+00 -1.461900247849103662e+00 3.241441948397893125e+00 -1.461900247849103662e+00 4.005392116076365028e+00
-1.371524438098410137e+01 1.860995344864118550e+00 3.193233589885860368e+00 1.860995344864118550e+00 1.000449745108701771e+00 -1.188299298224603007e+00 3.193233589885860368e+00 -1.188299298224603007e+00 2.190939870415625101e+00
-7.405718052287121544e+00 1.644633880522449632e+00 2.662453596061863159e+00 1.644633880522449632e+00 -1.503638674260610264e+00 -7.883170208911766119e-01 2.662453596061863159e+00 -7.883170208911766119e-01 8.817923233115066983e-01
-2.998086601427599973e+00 1.396695821437398566e+00 2.306756575099409012e+00 1.396695821437398566e+00 -1.940830333591817114e+00 -5.923613242075661534e-01 2.306756575099409012e+00 -5.923613242075661534e-01 2.683855234516430710e-01
-8.826281116955794204e+00 8.827968706449869085e-01 2.247522699797191770e+00 8.827968706449869085e-01 -2.648120445183711258e+00 -8.482661015161964135e-01 2.247522699797191770e+00 -8.482661015161964135e-01 -6.315372374492126406e-01
-1.405184083828427966e+01 4.820966282232370115e-01 2.427196476497857969e+00 4.820966282232370115e-01 -8.058728571236521976e-01 -1.392418107635625013e+00 2.427196476497857969e+00 -1.392418107635625013e+00 4.535781635023911074e-01
-1.104510458978787568e+01 1.087433496593360083e+00 2.743542260679823652e+00 1.087433496593360083e+00 3.028831330969133262e+00 -1.637405646515371460e+00 2.743542260679823652e+00 -1.637405646515371460e+00 4.697447331772820256e+00
-5.759309243054964611e+00 1.984080587959522912e+00 3.022780907774158088e+00 1.984080587959522912e+00 4.998413923568208794e+00 -1.750271614267589371e+00 3.022780907774158088e+00 -1.750271614267589371e+00 8.466818075559912060e+00
-6.606707661286518096e+00 1.493706781278289153e+00 3.055054359676292464e+00 1.493706781278289153e+00 3.941436938499039755e+00 -1.880208951528201666e+00 3.055054359676292464e+00 -1.880208951528201666e+00 7.748394783153144338e+00
-1.251569290468141027e+01 5.865876712017890071e-01 2.907201267296795066e+00 5.865876712017890071e-01 1.530748768990724873e+00 -1.760044712043561610e+00 2.907201267296795066e+00 -1.760044712043561610e+00 6.140054557922328904e+00
-1.243856023285276002e+01 8.323416765124490579e-01 2.547044668101983600e+00 8.323416765124490579e-01 -2.642820366985031977e-01 -1.497586246460835380e+00 2.547044668101983600e+00 -1.497586246460835380e+00 5.141848935141339894e+00
-3.649688882374300114e+00 1.527749944318318231e+00 2.021420095919599369e+00 1.527749944318318231e+00 -4.020980704256967714e-02 -1.322589241024586304e+00 2.021420095919599369e+00 -1.322589241024586304e+00 6.340245976285795670e+00
1.625981208763314922e-01 1.577332152387509012e+00 2.017500036063155200e+00 1.577332152387509012e+00 1.330345323280666570e+00 -1.672198326545912828e+00 2.017500036063155200e+00 -1.672198326545912828e+00 7.136717820227691966e+00
-6.385980196031788125e+00 1.316371497024262816e+00 2.087595896710710441e+00 1.316371497024262816e+00 2.976448214003376336e+00 -2.003026828743261323e+00 2.087595896710710441e+00 -2.003026828743261323e+00 6.148098220563858796e+00
-1.405773471214427595e+01 1.497033671035980840e+00 1.436070954510515918e+00 1.497033671035980840e+00 2.296274353157100823e+00 -1.777164390395536975e+00 1.436070954510515918e+00 -1.777164390395536975e+00 5.569423871863050657e+00
-1.084878055688744247e+01 2.032447609786540266e+00 8.452731662640753374e-01 2.032447609786540266e+00 5.145566605406508565e+00 -1.175089907934976585e+00 8.452731662640753374e-01 -1.175089907934976585e+00 8.199669226592867233e+00
-2.600921809412646724e+00 2.054347835860818261e+00 7.120023679544404960e-01 2.054347835860818261e+00 5.431552812039586620e+00 -8.994714489281340208e-01 7.120023679544404960e-01 -8.994714489281340208e-01 9.719962690670866934e+00
-6.732793640007598057e+00 1.733742299853727520e+00 1.460691947252689582e+00 1.733742299853727520e+00 8.656702760629346738e-01 -1.387503417351351409e+00 1.460691947252689582e+00 -1.387503417351351409e+00 4.012042453290329824e+00
-1.670331395197831625e+01 1.768459867758195525e+00 1.602574901902579230e+00 1.768459867758195525e+00 -2.275941859970433523e+00 -1.573880188193198304e+00 1.602574901902579230e+00 -1.573880188193198304e+00 -4.123373952769471967e-02
-1.988203768391274906e+01 2.093793237899776560e+00 1.402480775956652659e+00 2.093793237899776560e+00 -3.427688831093389510e+00 -1.057968657804310153e+00 1.402480775956652659e+00 -1.057968657804310153e+00 2.866641241408816043e+00
-1.325127034074345111e+01 2.052188949693579900e+00 1.769559597601208623e+00 2.052188949693579900e+00 -1.465705849698632601e+00 -4.921989649927700494e-01 1.769559597601208623e+00 -4.921989649927700494e-01 4.587082149946009935e+00
-6.037224108381332499e+00 7.722650113903213320e-01 1.869410000660915783e+00 7.722650113903213320e-01 1.519935907205117953e+00 8.853062553448373673e-02 1.869410000660915783e+00 8.853062553448373673e-02 5.051824608986714260e+00
-1.024913038218004857e+01 -3.939326674896684866e-01 1.007681239583838817e+00 -3.939326674896684866e-01 3.953556430664313837e+00 8.383977996779901076e-01 1.007681239583838817e+00 8.383977996779901076e-01 7.322202402928543741e+00
-1.559229907842692775e+01 -2.107303910495978150e-01 4.694773773792452753e-01 -2.107303910495978150e-01 8.641312142510262362e+00 8.766800651789919963e-01 4.694773773792452753e-01 8.766800651789919963e-01 1.061282735101158892e+01
-1.685946383291506478e+01 1.004101712629954068e+00 1.030488793308188100e+00 1.004101712629954068e+00 9.490342014806193660e+00 5.235453494810307085e-01 1.030488793308188100e+00 5.235453494810307085e-01 1.258393401809340695e+01
-1.154547261399479297e+01 9.430225178017113130e-01 1.657278565233542666e+00 9.430225178017113130e-01 8.201545695433194894e+00 2.013991222249651158e-01 1.657278565233542666e+00 2.013991222249651158e-01 1.101380095620168831e+01
-4.929541879426102113e+00 3.181228035203506610e-01 1.646925778520708761e+00 3.181228035203506610e-01 4.992860344790343241e+00 -3.061617992159342688e-02 1.646925778520708761e+00 -3.061617992159342688e-02 7.961388946490079555e+00
-6.920593205097797629e+00 6.561910118743325970e-01 -1.188000260217349779e-01 6.561910118743325970e-01 1.687552617743867556e+00 -3.932579588241736923e-01 -1.188000260217349779e-01 -3.932579588241736923e-01 6.491007051312874587e+00
-1.457806250523865721e+01 2.000240726181021778e+00 -2.805124835668093120e+00 2.000240726181021778e+00 -1.181486701586322630e+00 -2.151886410024108631e-01 -2.805124835668093120e+00 -2.151886410024108631e-01 4.077965588344480530e+00
-1.447808182648674880e+01 3.280575953969229630e+00 -1.397749021076898357e+00 3.280575953969229630e+00 -2.923674567307459338e+00 4.076021148481824841e-01 -1.397749021076898357e+00 4.076021148481824841e-01 -1.944706191233844583e+00
-7.261535968527863538e+00 2.936453611265304797e+00 1.393956724540393211e+00 2.936453611265304797e+00 -3.980947207586206793e-01 8.241150911017643965e-01 1.393956724540393211e+00 8.241150911017643965e-01 -2.774581539435172939e+00
-5.488549289165214340e+00 2.508515584343529614e+00 1.794332000395753912e+00 2.508515584343529614e+00 1.853359639116406443e-01 7.734919965386952700e-01 1.794332000395753912e+00 7.734919965386952700e-01 -1.763104855593095599e-01
-1.028933418712721171e+01 2.215716610071779780e+00 -2.779329311596175911e-01 2.215716610071779780e+00 -1.734883981153261256e+00 5.174749070474012891e-01 -2.779329311596175911e-01 5.174749070474012891e-01 1.085937248454614368e+00
-1.181276506845051522e+01 1.672714848396790188e+00 -4.236594842282672135e-01 1.672714848396790188e+00 1.363278987527487551e-01 1.974908068312806464e-01 -4.236594842282672135e-01 1.974908068312806464e-01 9.026201263544307851e-01
-5.754030454064310796e+00 1.532655716186140049e+00 1.954722193351355441e+00 1.532655716186140049e+00 2.309755618313477754e+00 4.025439306540781192e-01 1.954722193351355441e+00 4.025439306540781192e-01 -5.892174168467770867e-01
-4.213610017749004122e+00 1.428818722252046314e+00 3.514346696603104725e+00 1.428818722252046314e+00 4.100041393902567499e+00 4.754546244775227359e-01 3.514346696603104725e+00 4.754546244775227359e-01 -2.256652499016282842e+00
-1.018188496740607718e+01 8.253626177508763817e-01 2.273547610074483138e+00 8.253626177508763817e-01 3.029634637310189227e+00 2.754717242502531804e-01 2.273547610074483138e+00 2.754717242502531804e-01 -3.457735650860145782e+00
-9.722666455158577747e+00 1.240927234450845518e+00 1.864437967928706197e+00 1.240927234450845518e+00 5.071687125017485087e+00 1.006457859726668791e-01 1.864437967928706197e+00 1.006457859726668791e-01 -7.038472122672159159e-01
-6.730130950379638932e+00 2.531810302159950510e+00 1.931774321160008689e+00 2.531810302159950510e+00 5.006039731139072302e+00 3.879035705800541051e-02 1.931774321160008689e+00 3.879035705800541051e-02 -1.889312322987920512e-01
-3.784731318275186496e+00 2.426001442203662428e+00 1.686809980597663072e+00 2.426001442203662428e+00 2.263826165910562072e+00 5.633247404190109275e-01 1.686809980597663072e+00 5.633247404190109275e-01 2.610448207837674506e+00
-3.972217888980541733e+00 2.975309425316271295e+00 9.409871931231613695e-01 2.975309425316271295e+00 -7.596262207847733761e-01 -2.543774821905089301e-01 9.409871931231613695e-01 -2.543774821905089301e-01 4.685895976629572246e+00
-1.028274684861563770e+01 3.501125631800342752e+00 1.533130792036790480e+00 3.501125631800342752e+00 -3.207633181517449916e+00 -1.134129542235201571e+00 1.533130792036790480e+00 -1.134129542235201571e+00 4.962367860028302324e+00
-1.279695902188690049e+01 2.966616369208014525e+00 3.148197045817015205e+00 2.966616369208014525e+00 -4.973273588923691868e+00 -8.737129679996078480e-01 3.148197045817015205e+00 -8.737129679996078480e-01 3.777322916902187355e+00
-1.003129481790453070e+01 2.406276319838380751e+00 4.038078432124454942e+00 2.406276319838380751e+00 -2.542166517946063298e+00 -1.157855951637324354e+00 4.038078432124454942e+00 -1.157855951637324354e+00 1.627702715357411289e+00
-4.716927804784207368e+00 1.801148523261856704e+00 3.709205162659081179e+00 1.801148523261856704e+00 2.201100955738166220e+00 -1.662227639940795365e+00 3.709205162659081179e+00 -1.662227639940795365e+00 4.434021292115556179e+00
-4.979061237203056933e+00 1.331752776899263191e+00 2.772734226423592130e+00 1.331752776899263191e+00 6.915224494070793426e+00 -2.538223916261957758e+00 2.772734226423592130e+00 -2.538223916261957758e+00 9.225345790661556578e+00
-1.155896664161627108e+01 9.322934348885836275e-01 2.597928111884515445e+00 9.322934348885836275e-01 8.204095962913500628e+00 -3.196131402391738430e+00 2.597928111884515445e+00 -3.196131402391738430e+00 8.469679666933643603e+00
-1.220497252948609912e+01 1.846926904224487076e-01 3.293340542133073701e+00 1.846926904224487076e-01 4.753470350857609716e+00 -2.840348402364976987e+00 3.293340542133073701e+00 -2.840348402364976987e+00 3.600399275346247929e+00
-7.811428506663848914e+00 -2.434375505895447767e-01 3.415436418137685060e+00 -2.434375505895447767e-01 4.954693938723323754e+00 -2.296752895796647209e+00 3.415436418137685060e+00 -2.296752895796647209e+00 2.457512591638732147e+00
-5.184603819944396008e+00 -9.595357600656598263e-02 2.349763405162631269e+00 -9.595357600656598263e-02 5.015896072538641448e+00 -1.766936499390774795e+00 2.349763405162631269e+00 -1.766936499390774795e+00 2.870290992661584717e+00
-9.935167678065960573e+00 2.634268896309290842e-01 1.344351756691117172e+00 2.634268896309290842e-01 2.288188779872300405e+00 -1.441602346366925191e+00 1.344351756691117172e+00 -1.441602346366925191e+00 1.107453872570294928e+00
-1.318161327931663784e+01 6.714775742447073315e-01 8.786112836113710856e-01 6.714775742447073315e-01 4.236914221743093845e-01 -1.336675020022303650e+00 8.786112836113710856e-01 -1.336675020022303650e+00 -4.541364994733791405e-01
-7.879219836091809981e+00 9.748663840122553381e-01 7.667115022076504971e-01 9.748663840122553381e-01 7.597102654519365394e-01 -1.472497702309230938e+00 7.667115022076504971e-01 -1.472497702309230938e+00 2.275746471029518325e+00
-3.779383297659539398e+00 1.347620200664065626e+00 8.830828296506727515e-01 1.347620200664065626e+00 3.915016344708530660e-01 -1.445768204652535971e+00 8.830828296506727515e-01 -1.445768204652535971e+00 6.440172301476168926e+00
-6.445650611918670947e+00 1.714583994333200856e+00 1.419300807631815209e+00 1.714583994333200856e+00 -7.503220303969305727e-01 -1.344838942221323386e+00 1.419300807631815209e+00 -1.344838942221323386e+00 7.733280293180479603e+00
-1.198151012003815019e+01 2.187207751116351684e+00 2.172077481280231481e+00 2.187207751116351684e+00 -3.045075887140652693e+00 -2.035660677992418233e+00 2.172077481280231481e+00 -2.035660677992418233e+00 6.123497081981979839e+00
-1.100981373467757329e+01 2.330335566895371358e+00 2.304110913010478878e+00 2.330335566895371358e+00 -1.457603099080500453e+00 -2.581186064566540761e+00 2.304110913010478878e+00 -2.581186064566540761e+00 5.816327890096154363e+00
-4.826613942112339295e+00 1.914439896671982000e+00 1.782754090124705204e+00 1.914439896671982000e+00 3.022403197415498788e+00 -2.371184586018934670e+00 1.782754090124705204e+00 -2.371184586018934670e+00 7.854741091779120055e+00
-5.310851427926597701e+00 1.500007553686038664e+00 1.709249072971693373e+00 1.500007553686038664e+00 3.690768144910171689e+00 -1.797789969188897885e+00 1.709249072971693373e+00 -1.797789969188897885e+00 6.417444192806093461e+00
-1.006180420849181445e+01 1.104171036978910836e+00 2.121742638495162758e+00 1.104171036978910836e+00 2.689640302245317915e+00 -1.235428886591626751e+00 2.121742638495162758e+00 -1.235428886591626751e+00 9.269308916645424556e-01
-1.146335719360026673e+01 8.291846935341725677e-01 2.234984089036936350e+00 8.291846935341725677e-01 4.666846374266174990e+00 -6.741586110669687271e-01 2.234984089036936350e+00 -6.741586110669687271e-01 -5.857984369261389768e-01
-8.418281463810942000e+00 6.969149507298116886e-01 2.185424061920032468e+00 6.969149507298116886e-01 6.954785269973599249e+00 -2.378715092258991137e-01 2.185424061920032468e+00 -2.378715092258991137e-01 1.619613308342759517e+00
-5.035087051104393474e+00 4.914694809023029132e-01 1.620435300280680391e+00 4.914694809023029132e-01 6.379461364530887302e+00 -2.404249075560896121e-01 1.620435300280680391e+00 -2.404249075560896121e-01 3.641302387187184575e+00
-6.920274132643349674e+00 7.546736239931218782e-01 6.085156748617807088e-01 7.546736239931218782e-01 4.832783458822232703e+00 -5.390900591672277420e-01 6.085156748617807088e-01 -5.390900591672277420e-01 2.041671428832695145e+00
-1.140445175550431145e+01 7.767751095407009476e-01 2.420366578386256573e-01 7.767751095407009476e-01 1.354716830495132696e+00 -6.329616794797228163e-01 2.420366578386256573e-01 -6.329616794797228163e-01 5.201921252660381967e-01
-1.217534010635788455e+01 5.578510192695705916e-01 5.665274797797962281e-01 5.578510192695705916e-01 -9.065809824137831541e-01 -7.982118646441239695e-01 5.665274797797962281e-01 -7.982118646441239695e-01 3.669003093291944406e+00
-7.534708206209249859e+00 8.222520611629663412e-01 1.295146208252574205e+00 8.222520611629663412e-01 1.413077535533182161e+00 -8.754624613060687510e-01 1.295146208252574205e+00 -8.754624613060687510e-01 8.493387919089416371e+00
-5.597134178682629191e+00 5.500416325966991371e-01 2.039562373198244405e+00 5.500416325966991371e-01 4.267513410959468345e+00 -8.596830774375420203e-01 2.039562373198244405e+00 -8.596830774375420203e-01 9.844387286273168058e+00
-1.141253999156349863e+01 -1.420156381961942271e-01 2.251152561102320426e+00 -1.420156381961942271e-01 2.829937283313737950e+00 -8.331325647527688671e-01 2.251152561102320426e+00 -8.331325647527688671e-01 6.540968016997663170e+00
-1.535700526124255560e+01 3.151420796861882367e-01 2.248526350825773346e+00 3.151420796861882367e-01 -8.565490556938744060e-01 -6.631870161692156040e-01 2.248526350825773346e+00 -6.631870161692156040e-01 4.493566478055927682e+00
-1.090509440598012780e+01 8.132439435914168291e-01 3.011045737174836034e+00 8.132439435914168291e-01 -6.473007584329898423e-01 -2.658675742678925924e-01 3.011045737174836034e+00 -2.658675742678925924e-01 5.232450908435597903e+00
-6.826166352856713360e+00 1.077638091574056656e+00 3.435754672809633536e+00 1.077638091574056656e+00 3.334781482731230540e+00 9.984028205477953055e-02 3.435754672809633536e+00 9.984028205477953055e-02 5.852956910113931599e+00
-7.732076441364569952e+00 9.455259112656893006e-01 2.594392471099192132e+00 9.455259112656893006e-01 7.121137479222433342e+00 -2.487835499466967693e-01 2.594392471099192132e+00 -2.487835499466967693e-01 5.405415980831456579e+00
-1.227383975137871452e+01 4.179029994473858478e-01 2.061445843242420750e+00 4.179029994473858478e-01 6.662387113993640142e+00 -1.237426799298211533e+00 2.061445843242420750e+00 -1.237426799298211533e+00 5.625740970329651702e+00
-1.073503064736204138e+01 5.542889782493248818e-01 1.907204188053543747e+00 5.542889782493248818e-01 5.057656772700056536e+00 -1.902281340859059977e+00 1.907204188053543747e+00 -1.902281340859059977e+00 7.029524582060903803e+00
-7.728632090184003545e+00 1.272114729062082894e+00 2.106490184902096274e+00 1.272114729062082894e+00 4.238611256166914032e+00 -2.234801926494314639e+00 2.106490184902096274e+00 -2.234801926494314639e+00 5.545456759042260764e+00
-1.002409495944060147e+01 1.977899567407912729e+00 2.335102483975825205e+00 1.977899567407912729e+00 1.850890954529256005e+00 -2.323369079969029194e+00 2.335102483975825205e+00 -2.323369079969029194e+00 4.180285968661230367e-01
-1.231069100508188541e+01 2.302108768311469156e+00 1.231952474419507171e+00 2.302108768311469156e+00 -1.223470216288637724e+00 -2.056568306423630421e+00 1.231952474419507171e+00 -2.056568306423630421e+00 -1.596204860659509839e+00
-1.062795086212742746e+01 2.721850037496413854e+00 3.087225310365648290e-01 2.721850037496413854e+00 -1.115420335787587591e+00 -1.324675668738987566e+00 3.087225310365648290e-01 -1.324675668738987566e+00 3.702304318838330333e-01
-5.856823943143968592e+00 2.493273538697554859e+00 4.814269375208977686e-01 2.493273538697554859e+00 1.041922591849657076e+00 -4.703534874612276262e-01 4.814269375208977686e-01 -4.703534874612276262e-01 5.234295366332379906e+00
-7.399960779448618631e+00 1.746827117052791811e+00 6.446326422155087554e-01 1.746827117052791811e+00 6.981527634480644284e-01 -3.870346080907925423e-01 6.446326422155087554e-01 -3.870346080907925423e-01 1.030189870002375230e+01
-9.167190364545497516e+00 1.418866284903659736e+00 9.544061586080716808e-02 1.418866284903659736e+00 -6.645047771746570575e-01 -2.117655949898789580e-01 9.544061586080716808e-02 -2.117655949898789580e-01 1.044463002809789387e+01
-6.609951269772953886e+00 1.726636949236821872e+00 -7.694832735552137315e-01 1.726636949236821872e+00 -1.306281587419388712e+00 -2.480791066753482710e-01 -7.694832735552137315e-01 -2.480791066753482710e-01 7.000062660653713742e+00
-6.200982993882551142e+00 1.672679405339883463e+00 -5.135777647768062781e-01 1.672679405339883463e+00 -2.947596929243212482e+00 -1.225382952782012147e+00 -5.135777647768062781e-01 -1.225382952782012147e+00 1.240911516551953753e+00