8.166090511734919843e+00 -0.000000000000000000e+00 0.000000000000000000e+00 6.872960437170035075e-02 8.109902847620034549e+00 0.000000000000000000e+00 8.349951935162198968e-03 3.897977562067336116e-02 8.165380541250723212e+00
8.156410696135852234e+00 -0.000000000000000000e+00 0.000000000000000000e+00 6.872960437170035075e-02 8.100289635033581348e+00 0.000000000000000000e+00 8.349951935162198968e-03 3.897977562067336116e-02 8.155701567226813609e+00
8.135938357880798222e+00 -0.000000000000000000e+00 0.000000000000000000e+00 6.872960437170035075e-02 8.079958158904680943e+00 0.000000000000000000e+00 8.349951935162198968e-03 3.897977562067336116e-02 8.135231008864511892e+00
8.109179691186740868e+00 -0.000000000000000000e+00 0.000000000000000000e+00 6.872960437170035075e-02 8.053383608093797719e+00 0.000000000000000000e+00 8.349951935162198968e-03 3.897977562067336116e-02 8.108474668602063673e+00
8.081765275187375863e+00 -0.000000000000000000e+00 0.000000000000000000e+00 6.872960437170035075e-02 8.026157819932631554e+00 0.000000000000000000e+00 8.349951935162198968e-03 3.897977562067336116e-02 8.081062636047976255e+00
8.060909481988600689e+00 -0.000000000000000000e+00 0.000000000000000000e+00 6.872960437170035075e-02 8.005445527262825323e+00 0.000000000000000000e+00 8.349951935162198968e-03 3.897977562067336116e-02 8.060208656078765799e+00
8.052675858810816933e+00 -0.000000000000000000e+00 0.000000000000000000e+00 6.872960437170035075e-02 7.997268556414933727e+00 0.000000000000000000e+00 8.349951935162198968e-03 3.897977562067336116e-02 8.051975748742860262e+00
8.058034290269070254e+00 -0.000000000000000000e+00 0.000000000000000000e+00 6.872960437170035075e-02 8.002590118609418823e+00 0.000000000000000000e+00 8.349951935162198968e-03 3.897977562067336116e-02 8.057333714332797214e+00
8.072986638331851594e+00 -0.000000000000000000e+00 0.000000000000000000e+00 6.872960437170035075e-02 8.017439585432416749e+00 0.000000000000000000e+00 8.349951935162198968e-03 3.897977562067336116e-02 8.072284762419061011e+00
8.091517151057640689e+00 -0.000000000000000000e+00 0.000000000000000000e+00 6.872960437170035075e-02 8.035842596972139873e+00 0.000000000000000000e+00 8.349951935162198968e-03 3.897977562067336116e-02 8.090813664077124656e+00
8.108705807637557328e+00 -0.000000000000000000e+00 0.000000000000000000e+00 6.872960437170035075e-02 8.052912985151843728e+00 0.000000000000000000e+00 8.349951935162198968e-03 3.897977562067336116e-02 8.108000826253642046e+00
8.123383832146426897e+00 -0.000000000000000000e+00 0.000000000000000000e+00 6.872960437170035075e-02 8.067490015934065894e+00 0.000000000000000000e+00 8.349951935162198968e-03 3.897977562067336116e-02 8.122677574635858377e+00
8.137405232991021364e+00 -0.000000000000000000e+00 0.000000000000000000e+00 6.872960437170035075e-02 8.081414941022003973e+00 0.000000000000000000e+00 8.349951935162198968e-03 3.897977562067336116e-02 8.136697756441471086e+00
8.151111331930589898e+00 -0.000000000000000000e+00 0.000000000000000000e+00 6.872960437170035075e-02 8.095026733673426733e+00 0.000000000000000000e+00 8.349951935162198968e-03 3.897977562067336116e-02 8.150402663754897858e+00
8.160746967332970669e+00 -0.000000000000000000e+00 0.000000000000000000e+00 6.872960437170035075e-02 8.104596070050444467e+00 0.000000000000000000e+00 8.349951935162198968e-03 3.897977562067336116e-02 8.160037461423099714e+00
8.162362183731298515e+00 -0.000000000000000000e+00 0.000000000000000000e+00 6.872960437170035075e-02 8.106200172778745383e+00 0.000000000000000000e+00 8.349951935162198968e-03 3.897977562067336116e-02 8.161652537393235818e+00
8.155092285094024618e+00 -0.000000000000000000e+00 0.000000000000000000e+00 6.872960437170035075e-02 8.098980295460535217e+00 0.000000000000000000e+00 8.349951935162198968e-03 3.897977562067336116e-02 8.154383270809324458e+00
8.141568895108729720e+00 -0.000000000000000000e+00 0.000000000000000000e+00 6.872960437170035075e-02 8.085549954614620560e+00 0.000000000000000000e+00 8.349951935162198968e-03 3.897977562067336116e-02 8.140861056565260157e+00
8.126921652038673116e+00 -0.000000000000000000e+00 0.000000000000000000e+00 6.872960437170035075e-02 8.071003493475430446e+00 0.000000000000000000e+00 8.349951935162198968e-03 3.897977562067336116e-02 8.126215086944872823e+00
8.116892957358857075e+00 -0.000000000000000000e+00 0.000000000000000000e+00 6.872960437170035075e-02 8.061043802309411532e+00 0.000000000000000000e+00 8.349951935162198968e-03 3.897977562067336116e-02 8.116187264174040905e+00
8.115608941868037718e+00 -0.000000000000000000e+00 0.000000000000000000e+00 6.872960437170035075e-02 8.059768621624737506e+00 0.000000000000000000e+00 8.349951935162198968e-03 3.897977562067336116e-02 8.114903360316576553e+00
8.123818021370103892e+00 -0.000000000000000000e+00 0.000000000000000000e+00 6.872960437170035075e-02 8.067921217671939260e+00 0.000000000000000000e+00 8.349951935162198968e-03 3.897977562067336116e-02 8.123111726110751718e+00
8.139042227094991588e+00 -0.000000000000000000e+00 0.000000000000000000e+00 6.872960437170035075e-02 8.083040671611810168e+00 0.000000000000000000e+00 8.349951935162198968e-03 3.897977562067336116e-02 8.138334608223258826e+00
8.156764439789599308e+00 -0.000000000000000000e+00 0.000000000000000000e+00 6.872960437170035075e-02 8.100640944716337444e+00 0.000000000000000000e+00 8.349951935162198968e-03 3.897977562067336116e-02 8.156055280125734441e+00
8.173382276578324834e+00 -0.000000000000000000e+00 0.000000000000000000e+00 6.872960437170035075e-02 8.117144440691243190e+00 0.000000000000000000e+00 8.349951935162198968e-03 3.897977562067336116e-02 8.172671672137779453e+00
8.185911795310641281e+00 -0.000000000000000000e+00 0.000000000000000000e+00 6.872960437170035075e-02 8.129587748722816087e+00 0.000000000000000000e+00 8.349951935162198968e-03 3.897977562067336116e-02 8.185200101538367079e+00
8.191140836861706020e+00 -0.000000000000000000e+00 0.000000000000000000e+00 6.872960437170035075e-02 8.134780811290985625e+00 0.000000000000000000e+00 8.349951935162198968e-03 3.897977562067336116e-02 8.190428688470044349e+00
8.187968950892035025e+00 -0.000000000000000000e+00 0.000000000000000000e+00 6.872960437170035075e-02 8.131630749823687054e+00 0.000000000000000000e+00 8.349951935162198968e-03 3.897977562067336116e-02 8.187257078267789367e+00
8.178436896021413105e+00 -0.000000000000000000e+00 0.000000000000000000e+00 6.872960437170035075e-02 8.122164281281529341e+00 0.000000000000000000e+00 8.349951935162198968e-03 3.897977562067336116e-02 8.177725852125396599e+00
8.165943286661391909e+00 -0.000000000000000000e+00 0.000000000000000000e+00 6.872960437170035075e-02 8.109756635544675518e+00 0.000000000000000000e+00 8.349951935162198968e-03 3.897977562067336116e-02 8.165233328976121641e+00
8.153871748963798183e+00 -0.000000000000000000e+00 0.000000000000000000e+00 6.872960437170035075e-02 8.097768157359967134e+00 0.000000000000000000e+00 8.349951935162198968e-03 3.897977562067336116e-02 8.153162840793486410e+00
8.144975413158785926e+00 -0.000000000000000000e+00 0.000000000000000000e+00 6.872960437170035075e-02 8.088933033750597801e+00 0.000000000000000000e+00 8.349951935162198968e-03 3.897977562067336116e-02 8.144267278448023006e+00
8.141192788088714494e+00 -0.000000000000000000e+00 0.000000000000000000e+00 6.872960437170035075e-02 8.085176435439709763e+00 0.000000000000000000e+00 8.349951935162198968e-03 3.897977562067336116e-02 8.140484982245059342e+00
8.143876055498020960e+00 -0.000000000000000000e+00 0.000000000000000000e+00 6.872960437170035075e-02 8.087841240339288973e+00 0.000000000000000000e+00 8.349951935162198968e-03 3.897977562067336116e-02 8.143168016367706485e+00
8.151901853735108006e+00 -0.000000000000000000e+00 0.000000000000000000e+00 6.872960437170035075e-02 8.095811816208255962e+00 0.000000000000000000e+00 8.349951935162198968e-03 3.897977562067336116e-02 8.151193116831811025e+00
8.161137632610184767e+00 -0.000000000000000000e+00 0.000000000000000000e+00 6.872960437170035075e-02 8.104984047313131157e+00 0.000000000000000000e+00 8.349951935162198968e-03 3.897977562067336116e-02 8.160428092735509509e+00
8.167298772980803534e+00 -0.000000000000000000e+00 0.000000000000000000e+00 6.872960437170035075e-02 8.111102795295774825e+00 0.000000000000000000e+00 8.349951935162198968e-03 3.897977562067336116e-02 8.166588697449213896e+00
8.168346970049066513e+00 -0.000000000000000000e+00 0.000000000000000000e+00 6.872960437170035075e-02 8.112143780130551818e+00 0.000000000000000000e+00 8.349951935162198968e-03 3.897977562067336116e-02 8.167636803386001176e+00
8.162952647235412584e+00 -0.000000000000000000e+00 0.000000000000000000e+00 6.872960437170035075e-02 8.106786573535247342e+00 0.000000000000000000e+00 8.349951935162198968e-03 3.897977562067336116e-02 8.162242949560646110e+00
8.151248857003954740e+00 -0.000000000000000000e+00 0.000000000000000000e+00 6.872960437170035075e-02 8.095163312491237662e+00 0.000000000000000000e+00 8.349951935162198968e-03 3.897977562067336116e-02 8.150540176872329567e+00
8.134918722103128275e+00 -0.000000000000000000e+00 0.000000000000000000e+00 6.872960437170035075e-02 8.078945538839626295e+00 0.000000000000000000e+00 8.349951935162198968e-03 3.897977562067336116e-02 8.134211461734331294e+00
8.116422177276810146e+00 -0.000000000000000000e+00 0.000000000000000000e+00 6.872960437170035075e-02 8.060576261479718951e+00 0.000000000000000000e+00 8.349951935162198968e-03 3.897977562067336116e-02 8.115716525021758443e+00
8.098719358409567803e+00 -0.000000000000000000e+00 0.000000000000000000e+00 6.872960437170035075e-02 8.042995248761322102e+00 0.000000000000000000e+00 8.349951935162198968e-03 3.897977562067336116e-02 8.098015245260652861e+00
8.085099754084110302e+00 -0.000000000000000000e+00 0.000000000000000000e+00 6.872960437170035075e-02 8.029469355589437640e+00 0.000000000000000000e+00 8.349951935162198968e-03 3.897977562067336116e-02 8.084396825041380907e+00
8.078265776359543793e+00 -0.000000000000000000e+00 0.000000000000000000e+00 6.872960437170035075e-02 8.022682399783198193e+00 0.000000000000000000e+00 8.349951935162198968e-03 3.897977562067336116e-02 8.077563441471395933e+00
8.079252732509326407e+00 -0.000000000000000000e+00 0.000000000000000000e+00 6.872960437170035075e-02 8.023662565075071029e+00 0.000000000000000000e+00 8.349951935162198968e-03 3.897977562067336116e-02 8.078550311813671669e+00
8.087827155884363961e+00 -0.000000000000000000e+00 0.000000000000000000e+00 6.872960437170035075e-02 8.032177991207714030e+00 0.000000000000000000e+00 8.349951935162198968e-03 3.897977562067336116e-02 8.087123989718001837e+00
8.101467012634241627e+00 -0.000000000000000000e+00 0.000000000000000000e+00 6.872960437170035075e-02 8.045723997455823451e+00 0.000000000000000000e+00 8.349951935162198968e-03 3.897977562067336116e-02 8.100762660600704379e+00
8.116044890192588568e+00 -0.000000000000000000e+00 0.000000000000000000e+00 6.872960437170035075e-02 8.060201570359552647e+00 0.000000000000000000e+00 8.349951935162198968e-03 3.897977562067336116e-02 8.115339270739346134e+00
8.127626969705650239e+00 -0.000000000000000000e+00 0.000000000000000000e+00 6.872960437170035075e-02 8.071703958129345935e+00 0.000000000000000000e+00 8.349951935162198968e-03 3.897977562067336116e-02 8.126920343291205384e+00
8.133366023460929739e+00 -0.000000000000000000e+00 0.000000000000000000e+00 6.872960437170035075e-02 8.077403523707930688e+00 0.000000000000000000e+00 8.349951935162198968e-03 3.897977562067336116e-02 8.132658898085354693e+00
8.131799546524041133e+00 -0.000000000000000000e+00 0.000000000000000000e+00 6.872960437170035075e-02 8.075847825084000675e+00 0.000000000000000000e+00 8.349951935162198968e-03 3.897977562067336116e-02 8.131092557340684479e+00
8.123565809857909770e+00 -0.000000000000000000e+00 0.000000000000000000e+00 6.872960437170035075e-02 8.067670741528754519e+00 0.000000000000000000e+00 8.349951935162198968e-03 3.897977562067336116e-02 8.122859536525432134e+00
8.112262135006265140e+00 -0.000000000000000000e+00 0.000000000000000000e+00 6.872960437170035075e-02 8.056444842828408781e+00 0.000000000000000000e+00 8.349951935162198968e-03 3.897977562067336116e-02 8.111556844431131452e+00
8.103032517324724182e+00 -0.000000000000000000e+00 0.000000000000000000e+00 6.872960437170035075e-02 8.047278730523311552e+00 0.000000000000000000e+00 8.349951935162198968e-03 3.897977562067336116e-02 8.102328029183970770e+00
8.099378251462781009e+00 -0.000000000000000000e+00 0.000000000000000000e+00 6.872960437170035075e-02 8.043649608230632353e+00 0.000000000000000000e+00 8.349951935162198968e-03 3.897977562067336116e-02 8.098674081028196525e+00
8.100791296130868346e+00 -0.000000000000000000e+00 0.000000000000000000e+00 6.872960437170035075e-02 8.045052930292687421e+00 0.000000000000000000e+00 8.349951935162198968e-03 3.897977562067336116e-02 8.100087002844993833e+00
8.104486090584520852e+00 -0.000000000000000000e+00 0.000000000000000000e+00 6.872960437170035075e-02 8.048722302315677979e+00 0.000000000000000000e+00 8.349951935162198968e-03 3.897977562067336116e-02 8.103781476067494438e+00
8.109893641760026028e+00 -0.000000000000000000e+00 0.000000000000000000e+00 6.872960437170035075e-02 8.054092646254359167e+00 0.000000000000000000e+00 8.349951935162198968e-03 3.897977562067336116e-02 8.109188557104705097e+00
8.118706224943144534e+00 -0.000000000000000000e+00 0.000000000000000000e+00 6.872960437170035075e-02 8.062844593511517388e+00 0.000000000000000000e+00 8.349951935162198968e-03 3.897977562067336116e-02 8.118000374110234674e+00
8.131319661899402362e+00 -0.000000000000000000e+00 0.000000000000000000e+00 6.872960437170035075e-02 8.075371242357354262e+00 0.000000000000000000e+00 8.349951935162198968e-03 3.897977562067336116e-02 8.130612714437804200e+00
8.144947216354095687e+00 -0.000000000000000000e+00 0.000000000000000000e+00 6.872960437170035075e-02 8.088905030957791453e+00 0.000000000000000000e+00 8.349951935162198968e-03 3.897977562067336116e-02 8.144239084095318049e+00
8.155036108245393933e+00 -0.000000000000000000e+00 0.000000000000000000e+00 6.872960437170035075e-02 8.098924505142679919e+00 0.000000000000000000e+00 8.349951935162198968e-03 3.897977562067336116e-02 8.154327098844667887e+00
8.158314014415779525e+00 -0.000000000000000000e+00 0.000000000000000000e+00 6.872960437170035075e-02 8.102179857327891810e+00 0.000000000000000000e+00 8.349951935162198968e-03 3.897977562067336116e-02 8.157604720029693723e+00
8.155784564458055996e+00 -0.000000000000000000e+00 0.000000000000000000e+00 6.872960437170035075e-02 8.099667811521984007e+00 0.000000000000000000e+00 8.349951935162198968e-03 3.897977562067336116e-02 8.155075489985701864e+00
8.151040757381839086e+00 -0.000000000000000000e+00 0.000000000000000000e+00 6.872960437170035075e-02 8.094956644720879169e+00 0.000000000000000000e+00 8.349951935162198968e-03 3.897977562067336116e-02 8.150332095343111760e+00
8.145878408104874069e+00 -0.000000000000000000e+00 0.000000000000000000e+00 6.872960437170035075e-02 8.089829815543451375e+00 0.000000000000000000e+00 8.349951935162198968e-03 3.897977562067336116e-02 8.145170194886564019e+00
8.141032647677532097e+00 -0.000000000000000000e+00 0.000000000000000000e+00 6.872960437170035075e-02 8.085017396892183683e+00 0.000000000000000000e+00 8.349951935162198968e-03 3.897977562067336116e-02 8.140324855756794875e+00
8.137990762131542155e+00 -0.000000000000000000e+00 0.000000000000000000e+00 6.872960437170035075e-02 8.081996441365712158e+00 0.000000000000000000e+00 8.349951935162198968e-03 3.897977562067336116e-02 8.137283234675281918e+00
8.138017717976374854e+00 -0.000000000000000000e+00 0.000000000000000000e+00 6.872960437170035075e-02 8.082023211738615487e+00 0.000000000000000000e+00 8.349951935162198968e-03 3.897977562067336116e-02 8.137310188177130144e+00
8.140553807325879632e+00 -0.000000000000000000e+00 0.000000000000000000e+00 6.872960437170035075e-02 8.084541851252566858e+00 0.000000000000000000e+00 8.349951935162198968e-03 3.897977562067336116e-02 8.139846057035905247e+00
8.144563865543778647e+00 -0.000000000000000000e+00 0.000000000000000000e+00 6.872960437170035075e-02 8.088524317833289956e+00 0.000000000000000000e+00 8.349951935162198968e-03 3.897977562067336116e-02 8.143855766613809166e+00
8.150456634474224415e+00 -0.000000000000000000e+00 0.000000000000000000e+00 6.872960437170035075e-02 8.094376540934131725e+00 0.000000000000000000e+00 8.349951935162198968e-03 3.897977562067336116e-02 8.149748023219204995e+00
8.159405795350160417e+00 -0.000000000000000000e+00 0.000000000000000000e+00 6.872960437170035075e-02 8.103264126145514723e+00 0.000000000000000000e+00 8.349951935162198968e-03 3.897977562067336116e-02 8.158696406043619120e+00
8.170216338781417065e+00 -0.000000000000000000e+00 0.000000000000000000e+00 6.872960437170035075e-02 8.114000286469943646e+00 0.000000000000000000e+00 8.349951935162198968e-03 3.897977562067336116e-02 8.169506009592286233e+00
8.178248252239304961e+00 -0.000000000000000000e+00 0.000000000000000000e+00 6.872960437170035075e-02 8.121976935483948168e+00 0.000000000000000000e+00 8.349951935162198968e-03 3.897977562067336116e-02 8.177537224745194067e+00
8.179349341474102530e+00 -0.000000000000000000e+00 0.000000000000000000e+00 6.872960437170035075e-02 8.123070448555358425e+00 0.000000000000000000e+00 8.349951935162198968e-03 3.897977562067336116e-02 8.178638218250544156e+00
8.173841425343326250e+00 -0.000000000000000000e+00 0.000000000000000000e+00 6.872960437170035075e-02 8.117600430233430586e+00 0.000000000000000000e+00 8.349951935162198968e-03 3.897977562067336116e-02 8.173130780984010357e+00
8.164260001206889328e+00 -0.000000000000000000e+00 0.000000000000000000e+00 6.872960437170035075e-02 8.108084932116504717e+00 0.000000000000000000e+00 8.349951935162198968e-03 3.897977562067336116e-02 8.163550189868777451e+00
8.153224504836529718e+00 -0.000000000000000000e+00 0.000000000000000000e+00 6.872960437170035075e-02 8.097125366666062973e+00 0.000000000000000000e+00 8.349951935162198968e-03 3.897977562067336116e-02 8.152515652938895130e+00
8.141718251708986998e+00 -0.000000000000000000e+00 0.000000000000000000e+00 6.872960437170035075e-02 8.085698283550794230e+00 0.000000000000000000e+00 8.349951935162198968e-03 3.897977562067336116e-02 8.141010400180594075e+00
8.130566424640262468e+00 -0.000000000000000000e+00 0.000000000000000000e+00 6.872960437170035075e-02 8.074623187828379400e+00 0.000000000000000000e+00 8.349951935162198968e-03 3.897977562067336116e-02 8.129859542666288519e+00
8.121570625751790118e+00 -0.000000000000000000e+00 0.000000000000000000e+00 6.872960437170035075e-02 8.065689285501612460e+00 0.000000000000000000e+00 8.349951935162198968e-03 3.897977562067336116e-02 8.120864525884313068e+00
8.118655577369686682e+00 -0.000000000000000000e+00 0.000000000000000000e+00 6.872960437170035075e-02 8.062794294424053376e+00 0.000000000000000000e+00 8.349951935162198968e-03 3.897977562067336116e-02 8.117949730939752584e+00
8.124194490489033527e+00 -0.000000000000000000e+00 0.000000000000000000e+00 6.872960437170035075e-02 8.068295096454779269e+00 0.000000000000000000e+00 8.349951935162198968e-03 3.897977562067336116e-02 8.123488162498871290e+00
8.134539954341429180e+00 -0.000000000000000000e+00 0.000000000000000000e+00 6.872960437170035075e-02 8.078569377230925497e+00 0.000000000000000000e+00 8.349951935162198968e-03 3.897977562067336116e-02 8.133832726903444055e+00
8.143348899822486331e+00 -0.000000000000000000e+00 0.000000000000000000e+00 6.872960437170035075e-02 8.087317711814877796e+00 0.000000000000000000e+00 8.349951935162198968e-03 3.897977562067336116e-02 8.142640906522910171e+00
8.147069401074160666e+00 -0.000000000000000000e+00 0.000000000000000000e+00 6.872960437170035075e-02 8.091012613757909477e+00 0.000000000000000000e+00 8.349951935162198968e-03 3.897977562067336116e-02 8.146361084310445477e+00
8.145568768458254283e+00 -0.000000000000000000e+00 0.000000000000000000e+00 6.872960437170035075e-02 8.089522306405568131e+00 0.000000000000000000e+00 8.349951935162198968e-03 3.897977562067336116e-02 8.144860582160788454e+00
8.140790283684651740e+00 -0.000000000000000000e+00 0.000000000000000000e+00 6.872960437170035075e-02 8.084776700510703407e+00 0.000000000000000000e+00 8.349951935162198968e-03 3.897977562067336116e-02 8.140082512834794670e+00
8.135456784746876835e+00 -0.000000000000000000e+00 0.000000000000000000e+00 6.872960437170035075e-02 8.079479899286686972e+00 0.000000000000000000e+00 8.349951935162198968e-03 3.897977562067336116e-02 8.134749477598351319e+00
8.131261390348830886e+00 -0.000000000000000000e+00 0.000000000000000000e+00 6.872960437170035075e-02 8.075313371750473479e+00 0.000000000000000000e+00 8.349951935162198968e-03 3.897977562067336116e-02 8.130554447953203479e+00
8.127563410905514374e+00 -0.000000000000000000e+00 0.000000000000000000e+00 6.872960437170035075e-02 8.071640836652690609e+00 0.000000000000000000e+00 8.349951935162198968e-03 3.897977562067336116e-02 8.126856790017036758e+00
8.123780537735871832e+00 -0.000000000000000000e+00 0.000000000000000000e+00 6.872960437170035075e-02 8.067883991948221478e+00 0.000000000000000000e+00 8.349951935162198968e-03 3.897977562067336116e-02 8.123074245735500298e+00
8.120932916938633284e+00 -0.000000000000000000e+00 0.000000000000000000e+00 6.872960437170035075e-02 8.065055964512199083e+00 0.000000000000000000e+00 8.349951935162198968e-03 3.897977562067336116e-02 8.120226872513839567e+00
8.119249670695907639e+00 -0.000000000000000000e+00 0.000000000000000000e+00 6.872960437170035075e-02 8.063384300026802620e+00 0.000000000000000000e+00 8.349951935162198968e-03 3.897977562067336116e-02 8.118543772615268495e+00
8.118410135248524284e+00 -0.000000000000000000e+00 0.000000000000000000e+00 6.872960437170035075e-02 8.062550541093170153e+00 0.000000000000000000e+00 8.349951935162198968e-03 3.897977562067336116e-02 8.117704310158467607e+00
8.119119462204425375e+00 -0.000000000000000000e+00 0.000000000000000000e+00 6.872960437170035075e-02 8.063254987449164801e+00 0.000000000000000000e+00 8.349951935162198968e-03 3.897977562067336116e-02 8.118413575443721442e+00
8.122065090706501067e+00 -0.000000000000000000e+00 0.000000000000000000e+00 6.872960437170035075e-02 8.066180348236906994e+00 0.000000000000000000e+00 8.349951935162198968e-03 3.897977562067336116e-02 8.121358947849271814e+00
8.126075056011933029e+00 -0.000000000000000000e+00 0.000000000000000000e+00 6.872960437170035075e-02 8.070162722545161316e+00 0.000000000000000000e+00 8.349951935162198968e-03 3.897977562067336116e-02 8.125368564523711257e+00
8.129375390759213005e+00 -0.000000000000000000e+00 0.000000000000000000e+00 6.872960437170035075e-02 8.073440348983156767e+00 0.000000000000000000e+00 8.349951935162198968e-03 3.897977562067336116e-02 8.128668612334640997e+00
8.131728577408560810e+00 -0.000000000000000000e+00 0.000000000000000000e+00 6.872960437170035075e-02 8.075777344279707393e+00 0.000000000000000000e+00 8.349951935162198968e-03 3.897977562067336116e-02 8.131021594395170027e+00
8.132774381428600208e+00 -0.000000000000000000e+00 0.000000000000000000e+00 6.872960437170035075e-02 8.076815952532166776e+00 0.000000000000000000e+00 8.349951935162198968e-03 3.897977562067336116e-02 8.132067307491729125e+00
8.132321639131719238e+00 -0.000000000000000000e+00 0.000000000000000000e+00 6.872960437170035075e-02 8.076366325377357214e+00 0.000000000000000000e+00 8.349951935162198968e-03 3.897977562067336116e-02 8.131614604556622439e+00
8.131560106536330323e+00 -0.000000000000000000e+00 0.000000000000000000e+00 6.872960437170035075e-02 8.075610032588805609e+00 0.000000000000000000e+00 8.349951935162198968e-03 3.897977562067336116e-02 8.130853138169854333e+00
8.131625851713881303e+00 -0.000000000000000000e+00 0.000000000000000000e+00 6.872960437170035075e-02 8.075675325399959803e+00 0.000000000000000000e+00 8.349951935162198968e-03 3.897977562067336116e-02 8.130918877631437169e+00
8.133383843794350199e+00 -0.000000000000000000e+00 0.000000000000000000e+00 6.872960437170035075e-02 8.077421221427057318e+00 0.000000000000000000e+00 8.349951935162198968e-03 3.897977562067336116e-02 8.132676716869784883e+00
8.137387363519883010e+00 -0.000000000000000000e+00 0.000000000000000000e+00 6.872960437170035075e-02 8.081397194504159387e+00 0.000000000000000000e+00 8.349951935162198968e-03 3.897977562067336116e-02 8.136679888524323445e+00
8.142322692027647690e+00 -0.000000000000000000e+00 0.000000000000000000e+00 6.872960437170035075e-02 8.086298564953393608e+00 0.000000000000000000e+00 8.349951935162198968e-03 3.897977562067336116e-02 8.141614787948556753e+00
8.145763502155308089e+00 -0.000000000000000000e+00 0.000000000000000000e+00 6.872960437170035075e-02 8.089715700216334682e+00 0.000000000000000000e+00 8.349951935162198968e-03 3.897977562067336116e-02 8.145055298926939358e+00
8.146692097134035748e+00 -0.000000000000000000e+00 0.000000000000000000e+00 6.872960437170035075e-02 8.090637905896841175e+00 0.000000000000000000e+00 8.349951935162198968e-03 3.897977562067336116e-02 8.145983813172131605e+00
8.146128173721148613e+00 -0.000000000000000000e+00 0.000000000000000000e+00 6.872960437170035075e-02 8.090077862620617566e+00 0.000000000000000000e+00 8.349951935162198968e-03 3.897977562067336116e-02 8.145419938787961556e+00
8.145749274771205251e+00 -0.000000000000000000e+00 0.000000000000000000e+00 6.872960437170035075e-02 8.089701570725667423e+00 0.000000000000000000e+00 8.349951935162198968e-03 3.897977562067336116e-02 8.145041072780829339e+00
8.145629923952224516e+00 -0.000000000000000000e+00 0.000000000000000000e+00 6.872960437170035075e-02 8.089583041111959361e+00 0.000000000000000000e+00 8.349951935162198968e-03 3.897977562067336116e-02 8.144921732337788711e+00
8.145525150924328273e+00 -0.000000000000000000e+00 0.000000000000000000e+00 6.872960437170035075e-02 8.089478988986915198e+00 0.000000000000000000e+00 8.349951935162198968e-03 3.897977562067336116e-02 8.144816968419842595e+00
8.145703605686090754e+00 -0.000000000000000000e+00 0.000000000000000000e+00 6.872960437170035075e-02 8.089656215871745104e+00 0.000000000000000000e+00 8.349951935162198968e-03 3.897977562067336116e-02 8.144995407665691189e+00
8.147062100758184044e+00 -0.000000000000000000e+00 0.000000000000000000e+00 6.872960437170035075e-02 8.091005363672643114e+00 0.000000000000000000e+00 8.349951935162198968e-03 3.897977562067336116e-02 8.146353784628464823e+00
8.149760164437315879e+00 -0.000000000000000000e+00 0.000000000000000000e+00 6.872960437170035075e-02 8.093684863033638877e+00 0.000000000000000000e+00 8.349951935162198968e-03 3.897977562067336116e-02 8.149051613734947352e+00
8.153274515340655171e+00 -0.000000000000000000e+00 0.000000000000000000e+00 6.872960437170035075e-02 8.097175033068168659e+00 0.000000000000000000e+00 8.349951935162198968e-03 3.897977562067336116e-02 8.152565659096044470e+00
8.157159240073010409e+00 -0.000000000000000000e+00 0.000000000000000000e+00 6.872960437170035075e-02 8.101033028534384783e+00 0.000000000000000000e+00 8.349951935162198968e-03 3.897977562067336116e-02 8.156450046085343075e+00
8.160347725891124782e+00 -0.000000000000000000e+00 0.000000000000000000e+00 6.872960437170035075e-02 8.104199575631785279e+00 0.000000000000000000e+00 8.349951935162198968e-03 3.897977562067336116e-02 8.159638254691053305e+00
8.161417984209395016e+00 -0.000000000000000000e+00 0.000000000000000000e+00 6.872960437170035075e-02 8.105262469923445678e+00 0.000000000000000000e+00 8.349951935162198968e-03 3.897977562067336116e-02 8.160708419960862159e+00
8.158919256057826530e+00 -0.000000000000000000e+00 0.000000000000000000e+00 6.872960437170035075e-02 8.102780934539911328e+00 0.000000000000000000e+00 8.349951935162198968e-03 3.897977562067336116e-02 8.158209909052041908e+00
8.152909441935127788e+00 -0.000000000000000000e+00 0.000000000000000000e+00 6.872960437170035075e-02 8.096812471589180049e+00 0.000000000000000000e+00 8.349951935162198968e-03 3.897977562067336116e-02 8.152200617429334883e+00
8.144395666653981181e+00 -0.000000000000000000e+00 0.000000000000000000e+00 6.872960437170035075e-02 8.088357276254832584e+00 0.000000000000000000e+00 8.349951935162198968e-03 3.897977562067336116e-02 8.143687582347928000e+00
8.135356016882926866e+00 -0.000000000000000000e+00 0.000000000000000000e+00 6.872960437170035075e-02 8.079379824766744989e+00 0.000000000000000000e+00 8.349951935162198968e-03 3.897977562067336116e-02 8.134648718495350650e+00
8.128537478417488416e+00 -0.000000000000000000e+00 0.000000000000000000e+00 6.872960437170035075e-02 8.072608201988245469e+00 0.000000000000000000e+00 8.349951935162198968e-03 3.897977562067336116e-02 8.127830772842498774e+00
8.125167607070482134e+00 -0.000000000000000000e+00 0.000000000000000000e+00 6.872960437170035075e-02 8.069261517402770423e+00 0.000000000000000000e+00 8.349951935162198968e-03 3.897977562067336116e-02 8.124461194475806280e+00
8.124716512193121076e+00 -0.000000000000000000e+00 0.000000000000000000e+00 6.872960437170035075e-02 8.068813526332540675e+00 0.000000000000000000e+00 8.349951935162198968e-03 3.897977562067336116e-02 8.124010138817219229e+00
8.127129249210680584e+00 -0.000000000000000000e+00 0.000000000000000000e+00 6.872960437170035075e-02 8.071209662253661321e+00 0.000000000000000000e+00 8.349951935162198968e-03 3.897977562067336116e-02 8.126422666068984668e+00
8.132797575455086303e+00 -0.000000000000000000e+00 0.000000000000000000e+00 6.872960437170035075e-02 8.076838986969573142e+00 0.000000000000000000e+00 8.349951935162198968e-03 3.897977562067336116e-02 8.132090499502227843e+00
8.140454158025491438e+00 -0.000000000000000000e+00 0.000000000000000000e+00 6.872960437170035075e-02 8.084442887600230776e+00 0.000000000000000000e+00 8.349951935162198968e-03 3.897977562067336116e-02 8.139746416398464746e+00