8.230754299839000865e+00 7.996302380966000101e+00 2.095760568999999792e-03 8.236323004136000492e+00 8.024449089835000493e+00 4.087288074242000135e+00 3.849077899399999669e-02 4.167106586583000372e+00 7.717713531000000224e-03 4.354947433200000162e-02 4.177384423316000017e+00 4.076825575553000292e+00 4.148251036107000189e+00 8.003462652834999247e+00 4.059531261999999724e-03 4.152824036865999879e+00 8.016699090477999334e+00 4.078116836708000292e+00 4.135522667524999640e+00 4.194552958727999936e+00 8.163716916020000269e+00 4.125482696927999626e+00 4.193975889432000059e+00 4.086225007439000301e+00 2.107976373664000036e+00 6.100724358992000163e+00 2.036585057832000167e+00 2.095658185973999998e+00 6.117383320720000128e+00 6.121646382900999939e+00 6.177896666478000398e+00 6.100538620094000386e+00 2.034348299423000217e+00 6.162869371050000211e+00 6.102979706774999791e+00 6.105381195495000135e+00 2.049549344384999916e+00 2.040748305691999942e+00 2.042212254290999951e+00 2.073930680461999909e+00 2.057584010129000163e+00 6.125394234710999974e+00 6.145535692949000151e+00 2.029646990377000026e+00 2.028801656225999839e+00 6.151944686648000093e+00 2.055348012131000157e+00 6.118374524602000264e+00 2.072119671880999991e+00 2.082617962956999857e+00 8.163102669145999357e+00 2.254907448700000164e-02 2.031772242183000010e+00 2.044501695327999968e+00 2.109259011607000023e+00 8.018443978692999963e+00 2.032047614836999916e+00 2.061064853452999834e+00 2.059795948432999957e+00 4.079023103631000069e+00 2.468008219300000042e-02 2.044183454446999892e+00 6.122842721810999755e+00 2.124737029570999969e+00 8.040506487324000418e+00 6.123155023585000301e+00 2.101939741807000050e+00 6.121981434604999883e+00 8.154001363346999653e+00 6.549912809300000027e-02 6.105646716405000340e+00 2.050627240298000142e+00 2.079869649073000204e+00 4.182088612957000073e+00 2.037918434384999866e+00 2.090879857455000046e+00 6.097060982986000077e+00 4.087430077618999569e+00 8.220127948621000158e+00 6.110168262288000030e+00 6.122351740612000270e+00 2.077687744351000010e+00 4.200165519956000182e+00 6.117367695275000017e+00 6.148334287452000169e+00 2.011590986777000101e+00 3.383171454999999838e-03 4.102044353295999812e+00 2.029426839139000016e+00 2.040604747365999838e+00 6.192686846343000262e+00 8.013910613540000227e+00 2.061587852099000084e+00 6.131336812282000004e+00 2.043769555226000012e+00 4.094809448367000115e+00 4.115285340939999870e+00 2.050142743044999882e+00 6.128173827031000442e+00 6.192007234182000275e+00 8.037435027495000384e+00 6.110898615036999715e+00 6.184559633353999608e+00 6.109911434776000405e+00 8.163664022559000699e+00 4.145603877900000178e+00 6.097930830299000071e+00 2.045630466361000099e+00 6.152134713745000205e+00 4.166457518607000310e+00 2.044328655706999953e+00 6.180878452502000187e+00 6.095459234220999889e+00 4.074829558632999671e+00 4.145082259049999607e+00 6.121340265040999817e+00 6.132430368140999732e+00 6.169768214896000025e+00 4.195721341878000388e+00 6.135419993486999957e+00
7.133665377299999721e-02 7.983748477153000067e+00 1.057082955000000074e-02 8.227740991150000127e+00 8.007703698371999579e+00 4.097929975126000102e+00 8.168785502733999948e+00 4.169172740881999850e+00 4.778198806000000243e-03 6.382532624999999460e-02 4.148299114451999614e+00 4.076368104275999826e+00 4.155531175463999638e+00 8.050272817764000166e+00 8.149214037126000676e+00 4.145534795296000219e+00 8.004601948996999283e+00 4.078874958179000032e+00 4.103249819214999761e+00 4.148783607178000210e+00 8.789632850000000204e-04 4.128810405956000018e+00 4.200352136780000301e+00 4.065172218769999901e+00 2.149711189931000188e+00 6.102470088377000224e+00 2.037029458674000093e+00 2.096258247654000151e+00 6.094864313276000090e+00 6.139175574972999705e+00 6.169965420914000021e+00 6.126902589338000027e+00 2.027175243223999779e+00 6.172193162678000000e+00 6.070078500935999877e+00 6.079305541191000195e+00 2.043903462914999913e+00 2.025403933824999836e+00 2.022831024188000093e+00 2.074906021771000031e+00 2.070346314436000146e+00 6.113923647671000161e+00 6.128947963745000393e+00 2.018303135870000098e+00 2.002987020272000152e+00 6.144460835643999808e+00 2.042505911271999874e+00 6.135851841176999777e+00 2.068368332477999783e+00 2.170398895311000054e+00 8.152890221775999535e+00 8.145727858424999468e+00 2.026893277025000106e+00 2.075739682712999912e+00 2.115028330679999957e+00 8.021208581427000439e+00 1.993659846082999954e+00 2.094198450139999945e+00 2.115969938705999809e+00 4.031580226802000233e+00 4.461453087299999815e-02 2.006978519733999988e+00 6.110562024105999690e+00 2.156975625010999931e+00 8.078268978775000164e+00 6.096438622962000231e+00 2.085370808500000006e+00 6.132716728275999785e+00 8.110716953218000569e+00 1.076304153590000035e-01 6.121082146847999894e+00 2.051512850172000135e+00 2.088308004532999806e+00 4.206832069210999947e+00 2.032091508533000024e+00 2.118734074124000166e+00 6.080362242758000413e+00 4.125555845516999831e+00 6.076156167499999899e-02 6.132665511093000177e+00 6.112734221912999644e+00 2.011568297525999860e+00 4.255610988255999594e+00 6.074528088366999867e+00 6.168748225995000389e+00 1.948602694242999922e+00 4.004495061599999683e-02 4.066500938335000370e+00 2.016122299186000166e+00 1.976250329635000025e+00 6.145292364830999610e+00 7.988480673123000031e+00 2.115984542966999893e+00 6.033557990802999704e+00 2.043956252470000123e+00 4.135611918715000002e+00 4.149560093208999767e+00 2.012975385197000033e+00 6.182481865623000061e+00 6.151590721206999568e+00 8.000456399677000618e+00 6.066748807706000335e+00 6.193044189395999766e+00 6.050574776684999989e+00 8.136979523517000601e+00 4.148143508171999727e+00 6.079879305836000114e+00 2.055123389710999948e+00 6.113123708756000418e+00 4.176897071574000364e+00 2.016317954377000010e+00 6.167587891400000188e+00 6.059991276167999708e+00 4.053947057990000324e+00 4.167346352910000107e+00 6.138298014681000225e+00 6.127603041480999657e+00 6.165736551632000406e+00 4.203939215064999679e+00 6.182316757171999910e+00
7.835623675800000576e-02 7.959158964524999824e+00 1.818559548200000126e-02 7.239691992800000031e-02 7.979232555817000083e+00 4.103952034676000338e+00 8.122142887446999637e+00 4.167209873188999936e+00 2.164336879000000168e-03 8.455982000200000515e-02 4.114900018934999792e+00 4.069871847815000443e+00 4.148928669985999740e+00 8.047223339586999202e+00 8.116650551175000672e+00 4.133422623472999824e+00 7.982043695414000162e+00 4.075712169296999754e+00 4.074370872524999854e+00 4.137076532456999800e+00 4.125658346999999844e-03 4.126978382323000183e+00 4.201236385455000111e+00 4.037819915895999756e+00 2.178853398505999905e+00 6.089269608180000404e+00 2.040434848248000144e+00 2.093842420752999978e+00 6.076840290848999793e+00 6.144088122990000400e+00 6.160438511042999998e+00 6.126152066202999791e+00 2.014970483627999798e+00 6.172000756595999782e+00 6.042823964185999763e+00 6.047777198878000249e+00 2.036643276995000029e+00 2.009545254609999887e+00 2.000648958608000072e+00 2.075274019877999976e+00 2.078238525999999808e+00 6.091838283953999955e+00 6.099040761249000298e+00 2.011148647215999841e+00 1.990243134533999925e+00 6.131954502182000333e+00 2.025113468019000162e+00 6.140688286069000412e+00 2.052921898422999991e+00 2.263434407491999867e+00 8.112263613269000473e+00 8.106559089022999487e+00 2.018944300295999916e+00 2.109989010321999814e+00 2.119344047409000176e+00 8.019715188298999209e+00 1.951789271465999898e+00 2.126935173366999887e+00 2.179285585995999863e+00 4.027676764937000442e+00 5.864494209800000246e-02 1.970620995708000089e+00 6.086306766811000024e+00 2.180484413873999827e+00 8.106267569948000684e+00 6.063344397608999792e+00 2.075647008240999902e+00 6.137919496210000325e+00 8.083591516559000212e+00 1.227241447970000010e-01 6.129222712117000427e+00 2.045808001423000011e+00 2.094249128520000003e+00 4.206063587720000108e+00 2.020597662776999925e+00 2.148261062910000074e+00 6.074121430756999729e+00 4.115848101199000020e+00 6.427209438599999769e-02 6.155972261394000000e+00 6.092432956029999680e+00 1.956668527516999934e+00 4.233452262072000316e+00 6.030803088256000422e+00 6.186106354058000356e+00 1.874902209123000096e+00 3.678650300800000161e-02 4.050548899249999835e+00 2.000550251029999949e+00 1.904986603713999971e+00 6.094597880738000129e+00 7.978417193701999643e+00 2.155132177591000175e+00 5.936524151260999638e+00 2.048476678810000173e+00 4.114801067856999950e+00 4.117931320474999879e+00 1.987928125297000026e+00 6.243332288739000369e+00 6.116032916384000373e+00 7.974803122757999851e+00 6.024649671626000291e+00 6.199729577481999598e+00 6.016450158648999569e+00 8.130784914756999271e+00 4.131264894933999621e+00 6.061814779638999617e+00 2.055280189574999916e+00 6.073274383911999585e+00 4.153544883097000096e+00 1.987315610220000028e+00 6.149201325947999841e+00 6.009994526396000403e+00 4.036640394614999572e+00 4.170306614435999926e+00 6.130044193874000236e+00 6.113673212150000147e+00 6.159595202254999791e+00 4.153832023778999627e+00 6.216007642727999993e+00
8.577191859199999324e-02 7.926935699933999935e+00 2.502978179500000080e-02 7.352309770699999580e-02 7.943574916596999991e+00 4.107623483404999831e+00 8.069394019048999667e+00 4.163180514011999733e+00 2.272153439999999931e-04 1.062108290900000002e-01 4.079042121665000131e+00 4.059195365545000378e+00 4.139022197432000283e+00 8.038210956857000156e+00 8.075837657517000778e+00 4.118927028232000076e+00 7.953849641068999610e+00 4.071387405910000368e+00 4.042760054701999728e+00 4.122115455940000395e+00 8.253795319999999991e-03 4.122233819376000419e+00 4.198316121340999629e+00 4.006287003009999736e+00 2.192406430120000138e+00 6.062292196490999707e+00 2.051481839561000164e+00 2.092558822251000095e+00 6.067660952687999654e+00 6.136882439953000201e+00 6.156700573682000410e+00 6.098498227562999752e+00 1.997090124969999936e+00 6.161909273170000034e+00 6.024543046766999588e+00 6.014153445809999887e+00 2.027649764052999792e+00 1.996284322031999903e+00 1.977903594937000076e+00 2.076269704588999954e+00 2.082453549653000113e+00 6.062284545807999692e+00 6.059473113654999743e+00 2.011356785662000046e+00 1.994990634634000060e+00 6.115950572174000399e+00 2.004758921809000061e+00 6.129768442582999910e+00 2.016449270863000187e+00 2.363413163080000157e+00 8.075698346636000835e+00 8.094529245119000294e+00 2.009187147676999796e+00 2.150617074030999998e+00 2.121786345694999909e+00 8.012808033366999538e+00 1.908290652365999929e+00 2.161807481458999813e+00 2.250685648840999864e+00 4.035774419291000115e+00 3.716942544000000070e-02 1.932608112483999996e+00 6.045666379773999566e+00 2.190613012097000212e+00 8.081027404708999384e+00 6.029436757344999620e+00 2.076290788295999779e+00 6.135971917116999741e+00 8.067312427741999414e+00 9.640058715999999528e-02 6.132376517343000266e+00 2.037095667792999887e+00 2.096997760312000025e+00 4.187487503683000156e+00 2.004819229246999956e+00 2.173689418648999894e+00 6.087184645693000107e+00 4.057300225522999959e+00 6.124020580600000180e-02 6.180127187333999572e+00 6.063435338537000341e+00 1.915333803120000011e+00 4.179447786321000002e+00 5.992633471799999612e+00 6.217417324406000034e+00 1.822472599789999981e+00 8.106803148376000578e+00 4.048823786216999565e+00 1.985665161565000059e+00 1.823075317240999915e+00 6.047135645220000022e+00 7.968804338585999680e+00 2.177453808392999957e+00 5.844416935308999861e+00 2.059895499482999881e+00 4.058916851551000349e+00 4.061738287769999900e+00 1.978881812021999975e+00 6.318042880765999847e+00 6.092313482713000106e+00 7.951466444119000165e+00 5.986949626986000084e+00 6.200300242907999859e+00 5.986636707098999644e+00 3.740329804700000260e-02 4.104309427639000418e+00 6.049057729970000352e+00 2.044211857381999842e+00 6.036845894746999619e+00 4.108415307317000220e+00 1.958456115349999971e+00 6.132256941106000170e+00 5.947333493110000369e+00 4.037571129176999563e+00 4.150897608172999576e+00 6.090046547438999980e+00 6.096736425142999849e+00 6.159522042899999938e+00 4.078866037420000090e+00 6.236319126797000401e+00
9.315289799699999485e-02 7.893046648083999806e+00 3.159361891100000153e-02 7.463567503500000144e-02 7.906572301663000069e+00 4.111242928332999647e+00 8.025160889326999225e+00 4.198037449294999668e+00 8.080052793727000804e+00 1.290840144840000037e-01 4.042912078362999928e+00 4.047098431261000329e+00 4.128955495337000237e+00 8.029045950038000257e+00 8.033188663001000762e+00 4.105139370663000165e+00 7.925673003150000007e+00 4.068074565869999937e+00 4.010753283526000246e+00 4.106064378253000413e+00 1.318441933199999971e-02 4.117227420036000396e+00 4.193904611400999904e+00 3.973565522852000154e+00 2.192112547664000211e+00 6.028101210175999647e+00 2.070994676414999791e+00 2.095739591929000056e+00 6.064869624018999872e+00 6.125213739663999846e+00 6.164854507510000303e+00 6.058131728026999951e+00 1.974101560954999890e+00 6.144424539134999641e+00 6.013758767288999607e+00 5.980469822911000044e+00 2.018677539926999831e+00 1.988993364863000046e+00 1.956969949539999920e+00 2.075020860570000014e+00 2.084121926623000221e+00 6.031829193887999985e+00 6.019911720880999795e+00 2.017280122333999781e+00 2.011902712327000131e+00 6.096553037117000251e+00 1.984609246551999995e+00 6.103337129338999745e+00 1.950351453172000094e+00 2.462776208580999882e+00 8.064600945990999747e+00 8.095851229427999840e+00 2.001076216790000029e+00 2.200223413070999889e+00 2.121573809160000046e+00 7.994911449467999809e+00 1.866970747677999976e+00 2.203985813784000047e+00 2.320199776237000133e+00 4.015965972587999921e+00 8.082814240278999307e+00 1.887608409315000069e+00 5.981534124413999898e+00 2.185569841408999903e+00 7.992046075602000421e+00 5.997944957757000317e+00 2.083159737408000201e+00 6.121236452134000139e+00 8.037302828813000843e+00 8.113587812028999480e+00 6.128935287952000266e+00 2.032028014864000198e+00 2.094810981350999857e+00 4.168898093571000274e+00 1.991450516570000051e+00 2.185633306363000017e+00 6.117677397821999818e+00 3.978744289059000128e+00 8.136548276754000497e+00 6.198230546217000203e+00 6.030387512224000268e+00 1.884601177635000013e+00 4.170999015395000065e+00 5.960374069379000161e+00 6.254304866374000405e+00 1.711839461572999932e+00 8.063598221082999729e+00 4.040828590648000151e+00 1.975128077086000022e+00 1.725979309958999952e+00 6.008300863355000132e+00 7.932081749857999853e+00 2.190483411301999972e+00 5.756116743291999960e+00 2.077979720101000183e+00 4.016730008431999899e+00 4.035435245099000312e+00 1.982292699005999914e+00 6.405808204649999560e+00 6.074376779808000393e+00 7.907093195943000197e+00 5.947484946953999874e+00 6.210345550083999910e+00 6.040505874247999785e+00 8.050863360899999932e-02 4.084171979581999956e+00 6.041122674636000056e+00 2.024942608919999998e+00 6.007370679727999985e+00 4.072576152715000397e+00 1.928678507275999987e+00 6.119478386518999891e+00 5.877823824146999776e+00 4.071404705847999850e+00 4.117449234891999765e+00 6.020569917147000183e+00 6.080633651950000385e+00 6.169949100810000253e+00 4.044774769392000202e+00 6.247702718626999996e+00
9.983454871899999361e-02 7.864685595320000111e+00 3.830262716900000031e-02 7.551213567900000312e-02 7.875118962761000319e+00 4.117746730703999880e+00 7.980663593520000099e+00 4.197142224792999698e+00 8.058341135554000445e+00 1.530779602719999910e-01 4.010226088799999644e+00 4.037351267844999647e+00 4.123016730436999566e+00 8.025987555347999347e+00 7.997722505025000039e+00 4.096085270186000216e+00 7.903847665854000226e+00 4.067913431789000001e+00 3.981478412827999858e+00 4.092884731775000340e+00 1.881846112199999851e-02 4.115445590801000364e+00 4.192124769612999735e+00 3.943601884007000180e+00 2.186306517765999935e+00 5.999442720355999903e+00 2.091847949052000111e+00 2.105548909358000209e+00 6.066128708295000393e+00 6.123317451588000004e+00 6.184692729636999786e+00 6.024180659168999696e+00 1.950185505819999943e+00 6.126993162173000051e+00 6.007503343784000194e+00 5.950964438129999756e+00 2.011953282794999964e+00 1.988972145106000067e+00 1.939977672891999960e+00 2.070080841000999872e+00 2.085314339885000035e+00 6.009030669158000215e+00 5.991924894651000422e+00 2.023260260575999947e+00 2.033160761888999968e+00 6.076353019178999837e+00 1.969291691241999986e+00 6.071054520669999732e+00 1.853112940761999949e+00 2.545682482241999889e+00 8.044661425298999191e+00 8.077447874995000276e+00 1.999840897484999935e+00 2.264065056640999885e+00 2.117433122902999898e+00 7.971623538970000311e+00 1.831778525952000081e+00 2.258591741471999814e+00 2.370486176663999967e+00 3.988047497135000174e+00 8.068873969315999872e+00 1.837053821954000021e+00 5.889257596523999716e+00 2.171681898161000213e+00 7.924996651895000355e+00 5.967924892055999742e+00 2.087966982895999912e+00 6.090261054567999821e+00 7.989675994446000296e+00 8.027504942802000443e+00 6.114589963404999828e+00 2.040250884509999807e+00 2.085110459673999994e+00 4.163127798524000056e+00 1.990554227349000005e+00 2.175453638940000101e+00 6.158600675805000257e+00 3.919461310427999834e+00 8.110533251532000776e+00 6.205266276285000160e+00 6.000847095423000432e+00 1.859158058992999907e+00 4.198551694726000427e+00 5.929119711791000391e+00 6.301103555669000045e+00 1.554334655079999905e+00 1.158106435100000019e-02 4.024590996761999939e+00 1.972972702037000037e+00 1.613688488750000039e+00 5.981552289240999798e+00 7.884274828460999807e+00 2.214764432428999896e+00 5.670113023072000047e+00 2.101198473448000037e+00 4.027894553143999801e+00 4.036172508475000420e+00 1.995275700652999973e+00 6.497992490418999623e+00 6.049381260162999929e+00 7.865930998170999722e+00 5.900872671909000111e+00 6.219941592834000055e+00 6.127324467215999881e+00 9.225257520500000641e-02 4.075489349654000115e+00 6.033286967728000327e+00 2.005493421465999848e+00 5.989072917540999796e+00 4.062448820910000258e+00 1.897516987394999965e+00 6.111271534362000324e+00 5.810237135512999807e+00 4.127072299663000265e+00 4.083754976499999856e+00 5.934666496574999783e+00 6.065353746040000438e+00 6.193848856495000277e+00 4.058313016689999664e+00 6.262894312288000087e+00
1.054306534869999951e-01 7.847614019300999999e+00 4.493934841100000188e-02 7.616350688799999880e-02 7.854735664150999774e+00 4.129889032002999727e+00 7.950851019063000180e+00 4.202847393377999730e+00 8.048956289962999833e+00 1.780252801170000010e-01 3.984726629448000157e+00 4.033506950498000343e+00 4.124991799971000184e+00 8.033531325279000157e+00 7.977225461577999610e+00 4.094982771480999872e+00 7.893365720759000226e+00 4.072661388942999672e+00 3.957797787502999931e+00 4.086636264937999918e+00 2.485641208199999841e-02 4.119599447142999971e+00 4.197181019245999956e+00 3.920059356671000028e+00 2.185264521280999794e+00 5.990623170503000416e+00 2.103071857399999800e+00 2.120715373822000149e+00 6.066214595218999861e+00 6.138453653860000081e+00 6.204632595088999558e+00 6.011983310819999815e+00 1.929327393296000004e+00 6.118880308568999560e+00 6.001525291643000415e+00 5.937228273017000291e+00 2.007481415041000083e+00 1.995580835878999926e+00 1.927753795042000062e+00 2.063823884046999790e+00 2.090398723647000079e+00 5.999829609530999974e+00 5.982325882647000270e+00 2.023523069713999867e+00 2.053966965359999897e+00 6.062611064819000362e+00 1.962552471046999925e+00 6.048531298540999579e+00 1.736139679489000054e+00 2.591878380989999897e+00 8.001842094210999790e+00 8.036123551041999491e+00 2.010422254365999972e+00 2.344620532713999950e+00 2.108349665163999909e+00 7.966652193373000124e+00 1.804137580304999933e+00 2.326797164930999973e+00 2.383930287929000080e+00 3.978614742543999938e+00 5.294436766399999994e-02 1.790603907953000062e+00 5.774962209619999953e+00 2.164012365120000059e+00 7.967213684648999816e+00 5.939759395270000297e+00 2.085158263733999817e+00 6.046329822950999855e+00 7.953809475264000284e+00 8.014728274951000486e+00 6.087280611686000320e+00 2.067881796317000198e+00 2.065546615365000171e+00 4.162448514214999840e+00 2.008001549253000118e+00 2.141718634071999805e+00 6.202984618386000015e+00 3.912351899676000055e+00 8.099671691833000509e+00 6.207191209999000314e+00 5.983001131934000405e+00 1.835685607914000039e+00 4.205603688747999946e+00 5.891686985800999921e+00 6.368314161996999623e+00 1.456802146108999940e+00 5.392488367500000018e-02 4.013139264839000298e+00 1.983042592923000003e+00 1.497461068945999951e+00 5.965908968108999844e+00 7.869648154962000319e+00 2.273533567087000051e+00 5.587860986303000210e+00 2.129349250100999846e+00 4.085645867576999990e+00 4.045157853816999882e+00 2.020403443175999847e+00 6.580008987431999579e+00 6.006528653824999786e+00 7.884253024299000323e+00 5.845944359644000166e+00 6.228165534712999829e+00 6.230890476534000300e+00 6.217114638900000240e-02 4.069198401080000416e+00 6.021125105101000408e+00 1.994621746183000033e+00 5.983476170197000066e+00 4.065494147762000132e+00 1.867322911984999889e+00 6.107202978326999876e+00 5.751639679730000232e+00 4.156156725523000084e+00 4.064330829068000028e+00 5.853828410908000102e+00 6.047962004546000081e+00 6.232179103768999973e+00 4.067116334278000345e+00 6.294578610973999844e+00
1.103643091770000056e-01 7.842884439328999591e+00 5.078720353800000170e-02 7.705444191599999937e-02 7.846371822061000145e+00 4.148045040366000080e+00 7.937235936903999978e+00 4.215846143741999619e+00 8.052562994919000516e+00 2.037809587699999925e-01 3.967608264093999804e+00 4.036482610711000341e+00 4.067033088016000164e+00 4.955302316199999835e-02 7.973195233708000096e+00 4.101884152364999814e+00 7.895136974691999932e+00 4.082520268957999576e+00 3.940494611051999829e+00 4.088109915522999849e+00 3.087746843299999863e-02 4.129452890879999671e+00 4.210138846178000271e+00 3.904183653152999867e+00 2.191197741551000000e+00 6.007835154289000279e+00 2.106056373467000142e+00 2.136056355957999919e+00 6.065722673627999662e+00 6.159268758659999676e+00 6.217885043396999656e+00 6.029266061565000001e+00 1.912494058565000099e+00 6.125924598943999655e+00 5.996341389328000204e+00 5.944238538189999588e+00 2.003063413563999973e+00 2.008296370737999936e+00 1.920167696690999959e+00 2.059471920715000071e+00 2.101063366921999798e+00 6.004313888769000407e+00 5.990485192977000217e+00 2.014767679558000069e+00 2.072938756505999791e+00 6.061812523788000284e+00 1.964921244451000026e+00 6.045554759902000086e+00 1.619730793050000006e+00 2.584505212374000216e+00 7.975008628611999661e+00 8.003936593762000840e+00 2.033155069833000095e+00 2.433234461087999900e+00 2.096602286372999835e+00 7.993385009740999969e+00 1.783824622146999994e+00 2.404410235627000070e+00 2.349506651412999858e+00 3.972188703325000070e+00 7.082609945199999646e-02 1.764756905450999946e+00 5.653113512634000415e+00 2.110304891464000132e+00 7.029364916699999688e-02 5.927775862726000433e+00 2.075523666580000093e+00 5.998453296081000197e+00 7.959996147016999757e+00 8.076908673692999585e+00 6.051276267327000191e+00 2.101906622940000080e+00 2.037705510504999928e+00 4.156577076019000394e+00 2.040562275386000213e+00 2.094717225510000169e+00 6.242156174708999750e+00 3.948299314598000098e+00 8.098517303966000114e+00 6.213876251952999752e+00 5.984127980971999605e+00 1.817193690659000049e+00 4.196349306024999670e+00 5.849491440876000148e+00 6.428557357023000129e+00 1.413269209981999897e+00 8.507706588800000025e-02 4.010408975554000222e+00 2.006424355961000217e+00 1.398933507173000024e+00 5.961670506257999769e+00 7.894198702570999870e+00 2.368223243505000131e+00 5.512531859247999932e+00 2.165287286862000116e+00 4.130952037100000140e+00 4.062206046087999844e+00 2.062889074447999960e+00 6.640482329718000010e+00 5.943890631716000073e+00 7.946678742968999565e+00 5.784263872159000286e+00 6.232413572362999865e+00 6.332006049862999753e+00 2.155408222700000084e-02 4.063079148971000087e+00 6.005750918084999945e+00 1.993959685682000105e+00 5.987097016485999568e+00 4.070292196962999931e+00 1.838241398267999926e+00 6.106758482873999583e+00 5.709143221521999934e+00 4.131887613219999977e+00 4.066901203037000201e+00 5.799133745148999708e+00 6.027656513231000268e+00 6.277420436240999990e+00 4.049238169331999870e+00 6.344921436043000185e+00
1.157748342280000009e-01 7.847123529345999771e+00 5.533445417999999921e-02 7.860310078799999378e-02 7.846425244726000336e+00 4.169464435695999782e+00 7.936556665219000273e+00 4.233960712136999760e+00 8.065994437783999160e+00 2.296142899970000095e-01 3.957564684663000154e+00 4.043786805273000162e+00 4.084318203213999965e+00 6.129504009199999992e-02 7.981223944878999887e+00 4.113894116735999695e+00 7.906155148778999830e+00 4.095729209778999902e+00 3.928438392207000085e+00 4.094820429630999570e+00 3.684137875699999842e-02 4.142329469218999805e+00 4.228547350750999634e+00 3.894397766876999789e+00 2.196549143806000082e+00 6.044093082854000265e+00 2.112302804987999938e+00 2.147555508856000106e+00 6.064404235889999661e+00 6.169856328205000295e+00 6.231299367139000012e+00 6.070351385390000409e+00 1.904993990399000081e+00 6.147440335380999876e+00 5.992067620992999721e+00 5.956775716914999741e+00 1.997592488153999923e+00 2.026762557825000144e+00 1.917962395783999963e+00 2.058318463318999925e+00 2.117332600341999882e+00 6.017084406072999769e+00 6.010502443635999725e+00 1.997961607886000079e+00 2.089522692063999987e+00 6.073438397786000031e+00 1.975229848302999969e+00 6.060533571207000314e+00 1.519664286792999919e+00 2.519377903282999931e+00 7.990161426632999664e+00 8.005435987242000451e+00 2.060365465034000199e+00 2.512303468900999981e+00 2.017162054246000036e+00 1.458227065900000001e-02 1.768996414494999891e+00 2.481125058872999833e+00 2.267120905390000107e+00 3.953779731256000129e+00 3.041740998399999896e-02 1.775865724033000026e+00 5.542421392156000159e+00 2.154783417142000168e+00 1.087632358609999933e-01 5.952554557094000387e+00 2.063179585193999799e+00 5.957532291019999704e+00 7.999541794229999780e+00 6.088652327400000119e-02 6.021856449050999593e+00 2.113754639571999938e+00 2.009979798139999829e+00 4.155743633166999906e+00 2.079839254728999887e+00 2.053421466491999858e+00 6.267186648624000433e+00 3.987706563890000222e+00 8.092324772387000209e+00 6.230449488285000115e+00 6.009917239056999705e+00 1.813112641423999971e+00 4.211996831229999572e+00 5.817285524317999723e+00 6.463184710478000028e+00 1.436525728451000017e+00 9.755240701400000325e-02 4.011512158150999596e+00 2.037182605147000114e+00 1.341104923582000064e+00 5.973571671443999698e+00 7.923913422601000178e+00 2.468872368307000187e+00 5.450764992326000424e+00 2.210477206325000221e+00 4.124097812998000379e+00 4.078954123002000109e+00 2.123394907489000172e+00 6.671721452574000288e+00 5.872032414961999791e+00 7.978156498447000367e+00 5.727305041896999960e+00 6.226121544997000434e+00 6.410355196935999977e+00 8.305861633000000827e-03 4.066250773193000434e+00 5.996594718649999933e+00 1.996890926922000098e+00 5.995726411477000362e+00 4.086332702795999694e+00 1.805137618182000026e+00 6.110991055441999720e+00 5.693638271710000254e+00 4.094949837264000081e+00 4.084704832244000272e+00 5.783829268826999659e+00 6.010167476794999963e+00 6.314323827118999866e+00 4.036622828385000084e+00 6.399103275255000334e+00
1.225928378510000027e-01 7.855053914042000152e+00 5.847546652599999728e-02 8.076953103200000539e-02 7.849210870896000003e+00 4.190050440239000196e+00 7.943335198113000040e+00 4.253921392079000441e+00 8.084867097808000835e+00 2.540247091630000176e-01 3.952446983061999930e+00 4.051042254267000153e+00 4.104269465493000091e+00 7.229578098000000175e-02 7.994719251073999722e+00 4.126886253948000238e+00 7.921463245184000357e+00 4.109302567294999875e+00 3.919968290238999842e+00 4.103793094718000134e+00 4.329263620499999854e-02 4.155065782801999674e+00 4.248713813161000274e+00 3.887621233509999996e+00 2.195085023869999930e+00 6.087260375133999979e+00 2.126459858272999881e+00 2.158324159753000071e+00 6.060854364885000400e+00 6.167667507665999693e+00 6.246641764477000258e+00 6.117060080276999656e+00 1.912681125151000083e+00 6.175248689848999994e+00 5.986450831312000176e+00 5.957444780680000385e+00 1.991641816572000012e+00 2.049032808459000154e+00 1.922151940755999933e+00 2.059070658666999787e+00 2.135177929845999856e+00 6.030691891328999965e+00 6.035121610383000323e+00 1.978553554784000079e+00 2.103145715464000087e+00 6.090221640977000028e+00 1.990374647594999935e+00 6.083235355165999891e+00 1.443148898787000034e+00 2.406391953273999906e+00 8.020990144681999112e+00 8.034244864167000344e+00 2.078614429464999969e+00 2.562928659496999995e+00 2.006621157590999793e+00 1.473484282299999948e-02 1.757348016002999946e+00 2.539049997049000140e+00 2.149540858141000044e+00 3.945603455251999847e+00 8.058751684463999254e+00 1.829920898147999964e+00 5.466684777901999581e+00 2.213907894649000063e+00 5.947573508400000319e-02 6.021709045152999984e+00 2.050475139785000067e+00 5.933367207079999872e+00 8.031723108034000802e+00 8.129444060240999193e+00 6.019009168762999629e+00 2.085356147125999815e+00 1.992051782526000014e+00 4.169599670439000150e+00 2.117887674189999903e+00 2.029192444592999856e+00 6.274149710457000317e+00 4.005693560637999973e+00 8.074132245655000872e+00 6.255281052610000003e+00 6.059380079033999777e+00 1.830706802709000103e+00 4.242489639228000264e+00 5.810986608576000023e+00 6.468501100144999683e+00 1.511920603230999971e+00 8.052156423200000634e-02 4.013982890954999938e+00 2.063748244599000081e+00 1.337967564168000001e+00 6.007208686333999736e+00 7.939660160449999893e+00 2.537423491943000098e+00 5.419781406055999895e+00 2.256459041214000205e+00 4.085238017930000076e+00 4.072718963003000070e+00 2.192844772557000166e+00 6.662534702207000059e+00 5.813187642112000120e+00 7.960212742380999629e+00 5.698286478711000136e+00 6.205462059449000201e+00 6.453552194648000118e+00 3.257448605800000035e-02 4.075286252340999837e+00 6.005283878445999868e+00 1.997808560313000026e+00 6.007935678251000056e+00 4.115431559023000396e+00 1.765864873521000078e+00 6.122471445218000241e+00 5.705574945973999945e+00 4.090674355183000266e+00 4.097932525384999636e+00 5.806174870995000070e+00 6.004927768169999958e+00 6.325723065913999577e+00 4.052054447128999648e+00 6.436223923245999678e+00