-3.414112226850000297e+04
-3.414082409550000011e+04
-3.414086408369999845e+04
-3.414112320460000046e+04
-3.414135482570000022e+04
-3.414130825270000059e+04
-3.414129945250000310e+04
-3.414117690700000094e+04
-3.414095710010000039e+04
-3.414098012100000051e+04
-3.414113893709999684e+04
-3.414115453739999793e+04
-3.414095999260000099e+04
-3.414100451880000037e+04
-3.414094147040000098e+04
-3.414090868339999724e+04
-3.414096781650000048e+04
-3.414102265610000177e+04
-3.414096367209999880e+04
-3.414078424139999697e+04
-3.414076209989999916e+04
-3.414083811109999806e+04
-3.414117607609999686e+04
-3.414113936139999714e+04
-3.414095468889999756e+04
-3.414097239619999891e+04
-3.414099932309999713e+04
-3.414111115640000207e+04
-3.414136604059999809e+04
-3.414147114729999885e+04
-3.414132012669999676e+04
-3.414124221910000051e+04
-3.414118474889999925e+04
-3.414132294749999710e+04
-3.414145989169999666e+04
-3.414155071029999817e+04
-3.414127964780000184e+04
-3.414144739429999754e+04
-3.414155707570000231e+04
-3.414157896489999985e+04
-3.414157508930000040e+04
-3.414165690120000363e+04
-3.414171420590000344e+04
-3.414158602979999705e+04
-3.414165688209999644e+04
-3.414157343090000359e+04
-3.414158800360000168e+04
-3.414150663920000079e+04
-3.414147447790000297e+04
-3.414153160699999717e+04
-3.414159364449999703e+04
-3.414169180220000271e+04
-3.414165719230000104e+04
-3.414154725419999886e+04
-3.414143693950000306e+04
-3.414139819600000192e+04
-3.414155738260000362e+04
-3.414158374249999906e+04
-3.414157629689999885e+04
-3.414155330200000026e+04
-3.414142389579999872e+04
-3.414130725179999718e+04
-3.414145007060000353e+04
-3.414132063809999818e+04
-3.414094852379999793e+04
-3.414093568049999885e+04
-3.414095126300000265e+04
-3.414103187559999787e+04
-3.414102357830000255e+04
-3.414109677460000239e+04
-3.414114005390000239e+04
-3.414109808570000314e+04
-3.414092504029999691e+04
-3.414094186890000128e+04
-3.414104436069999792e+04
-3.414117527320000227e+04
-3.414088393180000276e+04
-3.414111577199999738e+04
-3.414124051450000115e+04
-3.414141737789999752e+04
-3.414116788079999969e+04
-3.414118947420000040e+04
-3.414114581880000333e+04
-3.414100621839999803e+04
-3.414123459659999935e+04
-3.414153275279999798e+04
-3.414150121619999845e+04
-3.414155577050000284e+04
-3.414160690079999767e+04
-3.414148960110000189e+04
-3.414128197240000009e+04
-3.414146568549999938e+04
-3.414173159080000187e+04
-3.414162737930000003e+04
-3.414177922250000120e+04
-3.414195589119999931e+04
-3.414185785790000227e+04
-3.414165459600000031e+04
-3.414166260950000287e+04
-3.414178741420000006e+04
-3.414155662519999896e+04
-3.414156629370000155e+04
-3.414166807359999802e+04
-3.414155819000000338e+04
-3.414164336380000168e+04
-3.414172498379999888e+04
-3.414159111700000358e+04
-3.414134998630000337e+04
-3.414122394619999977e+04
-3.414139805519999936e+04
-3.414171043669999926e+04
-3.414153454950000014e+04
-3.414138472650000040e+04
-3.414112057610000193e+04
-3.414116942330000165e+04
-3.414109449999999924e+04
-3.414110276639999938e+04
-3.414121512220000295e+04
-3.414109629790000326e+04
-3.414108183580000332e+04
-3.414098744450000231e+04
-3.414120749259999866e+04
-3.414107328240000061e+04
-3.414094797180000023e+04
-3.414098963979999826e+04
-3.414089236939999682e+04
-3.414090967990000354e+04
-3.414101046520000091e+04
-3.414103296840000257e+04
-3.414102645550000307e+04
-3.414133974299999682e+04
-3.414144083639999735e+04
-3.414119102920000296e+04
-3.414109715860000142e+04
-3.414098858699999982e+04
-3.414097501590000320e+04
-3.414103738560000056e+04
-3.414127674519999709e+04
-3.414149406230000022e+04
-3.414154154009999911e+04
-3.414129744809999829e+04
-3.414125577160000103e+04
-3.414132568470000115e+04
-3.414119235610000032e+04
-3.414150946149999800e+04
-3.414166139770000154e+04
-3.414175612659999751e+04
-3.414160377110000263e+04
-3.414158914779999759e+04
-3.414146304339999915e+04
-3.414153051550000237e+04
-3.414157143530000030e+04
-3.414163008329999866e+04
-3.414170840979999775e+04
-3.414165145789999951e+04
-3.414144153859999642e+04
-3.414158842849999928e+04
-3.414170010590000311e+04
-3.414173009399999864e+04
-3.414163857319999806e+04
-3.414147643100000278e+04
-3.414151369169999816e+04
-3.414138053870000294e+04
-3.414148725530000229e+04
-3.414136545070000284e+04
-3.414139340369999991e+04
-3.414118182089999755e+04
-3.414129527640000015e+04
-3.414134096980000322e+04
-3.414112732849999884e+04
-3.414109762950000004e+04
-3.414109624610000174e+04
-3.414109931930000312e+04
-3.414125584399999934e+04
-3.414140295589999732e+04
-3.414111347430000023e+04
-3.414120063500000106e+04
-3.414112132980000024e+04
-3.414110291970000253e+04
-3.414106934110000293e+04
-3.414096968429999833e+04
-3.414109963260000222e+04
-3.414135539589999826e+04
-3.414155157650000183e+04
-3.414129593590000150e+04
-3.414118053440000222e+04
-3.414104489219999959e+04
-3.414095131920000131e+04
-3.414103554109999823e+04
-3.414126284509999823e+04
-3.414134148419999838e+04
-3.414130199400000129e+04
-3.414122025790000043e+04
-3.414118367759999819e+04
-3.414122750629999791e+04
-3.414113068909999856e+04
-3.414120691950000037e+04
-3.414142297310000140e+04
-3.414143506450000132e+04
-3.414129411819999950e+04
-3.414139447359999758e+04
-3.414135386200000357e+04
-3.414142981280000095e+04
-3.414129086639999878e+04
-3.414134371799999644e+04
-3.414141428319999977e+04
-3.414131542199999967e+04
-3.414147112580000248e+04
-3.414134728460000042e+04
-3.414141349669999909e+04
-3.414117616819999967e+04
-3.414137997129999712e+04
-3.414141729689999920e+04
-3.414123246590000053e+04
-3.414109370219999983e+04
-3.414124704249999922e+04
-3.414127752380000311e+04
-3.414123096999999689e+04
-3.414111354169999686e+04
-3.414124028150000231e+04
-3.414109300950000033e+04
-3.414113059610000346e+04
-3.414104016709999996e+04
-3.414095549549999851e+04
-3.414102421049999975e+04
-3.414129291899999953e+04
-3.414137360009999975e+04
-3.414111262829999760e+04
-3.414102360970000154e+04
-3.414101219760000095e+04
-3.414112381499999901e+04
-3.414127332040000329e+04
-3.414128730899999937e+04
-3.414119443150000006e+04
-3.414132039670000086e+04
-3.414128021869999793e+04
-3.414123443889999908e+04
-3.414128979760000220e+04
-3.414123334330000216e+04
-3.414112251560000004e+04
-3.414128781020000315e+04
-3.414140687489999982e+04
-3.414117401300000347e+04
-3.414120766439999716e+04
-3.414118385249999847e+04
-3.414132907210000121e+04
-3.414140722839999944e+04
-3.414126052180000261e+04
-3.414127758029999677e+04
-3.414131767399999808e+04
-3.414145088029999897e+04
-3.414127596089999861e+04
-3.414136588979999942e+04
-3.414138501430000179e+04
-3.414137918650000211e+04
-3.414140845119999722e+04
-3.414145361099999718e+04
-3.414133751530000154e+04
-3.414147008579999965e+04
-3.414157305720000295e+04
-3.414130916270000307e+04
-3.414141670120000344e+04
-3.414149708990000363e+04
-3.414122609309999825e+04
-3.414098951059999672e+04
-3.414118750320000254e+04
-3.414127248559999862e+04
-3.414117907240000204e+04
-3.414135431840000092e+04
-3.414165120539999771e+04
-3.414138773239999864e+04
-3.414118262200000026e+04
-3.414113079319999815e+04
-3.414127074960000027e+04
-3.414108990630000335e+04
-3.414110704460000125e+04
-3.414120078910000302e+04
-3.414116298410000309e+04
-3.414130352370000037e+04
-3.414121499729999778e+04
-3.414119131080000079e+04
-3.414122375029999967e+04
-3.414114303439999640e+04
-3.414105833549999807e+04
-3.414104634939999960e+04
-3.414105630060000112e+04
-3.414106282649999775e+04
-3.414119627020000189e+04
-3.414150764630000049e+04
-3.414117564549999952e+04
-3.414103127289999975e+04
-3.414101767590000236e+04
