-2.844463971999999785e-03 -1.345090105589999974e-01 -8.646906087599999513e-02 -2.612206334600000041e-02 -1.306217121440000073e-01 5.301913509100000116e-02 7.724550662000000123e-03 1.604814296179999933e-01 -6.798665641800000214e-02 3.395104436600000081e-02 1.513910588840000071e-01 2.209062110799999909e-02 3.766059456999999895e-03 -6.194371133099999677e-02 -6.736513705499999616e-02 5.153769875900000158e-02 7.215719578999999634e-03 2.690296722699999851e-02 -1.451942312200000043e-02 8.649891260000000526e-02 2.359048949399999984e-02 -7.454095376000000224e-03 5.875142972999999880e-03 -7.418662253199999335e-02 -1.412784197199999925e-01 -8.132750201800000023e-02 3.165931577299999772e-02 -1.805863784789999982e-01 -7.989875562100000328e-02 1.758397981000000068e-03 8.152064160600000498e-02 -2.103035472689999963e-01 -7.285254729899999504e-02 1.319478228500000072e-01 2.194858888579999945e-01 5.871915952699999913e-02 3.227355705489999838e-01 4.473185959999999989e-02 -3.658137323200000290e-02 -9.199363469000000626e-02 6.361502817299999335e-02 -4.870602864200000021e-02 -1.768826112430000042e-01 1.695827891699999979e-01 3.401195580049999889e-01 6.120894801300000299e-02 -7.652239735099999884e-02 2.278756583300000152e-02 -9.921965447999999549e-03 2.494058172099999915e-02 4.120893171199999788e-02 -1.506454813700000006e-01 1.761617100200000077e-02 1.164217233999999962e-02 2.670353565299999829e-02 8.047093077299999342e-02 -1.419088370500000071e-02 9.525070557000000007e-03 1.412944204300000013e-02 6.766318348699999763e-02 1.235189997869999973e-01 1.579547643800000012e-02 6.148463679999999730e-03 -1.273398822599999987e-02 7.522745183800000346e-02 -1.816330741499999971e-02 2.054858223699999875e-02 3.514435017399999972e-02 1.408701953600000056e-01 -1.012748224170000044e-01 -3.285958305799999840e-02 -6.233765759800000139e-02 1.501028166099999984e-02 -1.748414324789999974e-01 -3.094387707999999865e-03 9.974317550099999485e-02 7.938903895799999388e-02 -8.316771630199999710e-02 7.500121968400000338e-02 6.602515992599999883e-02 1.794715028000000000e-03 7.404310219399999615e-02 -2.231339104629999903e-01 1.545481065700000066e-02 -2.500336239000000051e-03 -8.039535659000000833e-03 -4.025538971699999663e-02 -3.012589859499999884e-02 -5.877004192999999571e-03 -2.065338842600000085e-02 4.006446278000000069e-03 6.244683498200000182e-02 -5.372235576400000157e-02 4.314418206900000330e-02 3.161440216800000258e-02 -3.637201195950000021e-01 -1.794205784569999906e-01 5.736748416100000136e-02 4.665481697400000044e-02 1.028896827700000009e-02 -5.663554955999999807e-02 2.450845742899999957e-02 1.219724015500000050e-02 1.097540986019999998e-01 1.514838613520000099e-01 -9.995277509899999635e-02 2.739971154799999975e-02 -9.247692171000000683e-03 6.717435494899999526e-02 -5.098788062600000115e-02 -4.734132141000000141e-03 -4.652255873299999955e-02 -1.786085768300000112e-02 1.164154752009999988e-01 2.474864879699999881e-02 -6.251918101299999697e-02 -7.127985607499999487e-02 -2.526664953099999958e-02 -1.983173927609999943e-01 -5.777980589000000083e-03
7.877363487199999514e-02 -3.329300077919999934e-01 -1.957291956880000128e-01 -7.834555890999999467e-03 -2.606543794160000038e-01 1.766639842040000075e-01 -1.462835531700000004e-02 3.386063330299999841e-01 7.896594796200000210e-02 9.400979189699999738e-02 2.752424420019999873e-01 -1.479611187369999914e-01 -3.229400647499999777e-02 -7.958642111500000005e-02 -3.446706342220000052e-01 1.263802954480000018e-01 1.365109040200000040e-02 3.303845588609999884e-01 1.102601622040000062e-01 1.410419274359999975e-01 1.597544225570000087e-01 5.723511255500000200e-02 1.842006250599999978e-02 -2.006768997789999953e-01 -5.028075709520000158e-01 -3.555203362650000143e-01 2.850383864450000138e-01 -1.424537187199999971e-02 6.947832528980000255e-01 -2.285098520780000086e-01 3.257418140730000133e-01 -1.000106063168000103e+00 -1.109890869059999979e-01 -7.248797293200000269e-02 7.277712550830000016e-01 1.347824624570000129e-01 9.017973897000000627e-02 2.010748584129999905e-01 -1.964221078199999970e-02 2.176918548389999986e-01 -2.439952528169999912e-01 -2.491722264289999988e-01 -5.206646684389999447e-01 6.705499952500000305e-01 1.561280641034000105e+00 3.365130200559999785e-01 -1.912933068759999911e-01 -4.098410816899999976e-01 -1.438420591319999886e-01 1.494142754090000136e-01 -4.279106200760000034e-01 2.384411167209999904e-01 -8.564434540000000554e-03 9.827610246100000613e-02 2.247855634300000016e-02 1.139069746770000058e-01 -1.203842043699999975e-02 4.039136269899999687e-02 1.731583728249999898e-01 9.556257368480000070e-01 -5.116673591399999860e-02 7.076643228600000557e-02 -5.904084627700000032e-02 -1.001183882640000050e-01 1.044707351520000049e-01 2.969625739899999992e-02 1.669386284959999966e-01 4.859261923100000047e-02 4.951854077849999758e-01 -4.573621180119999963e-01 1.790162132000000170e-02 -6.825506033299999498e-02 5.040128347999999966e-03 -3.529400453320000186e-01 -5.333199899600000321e-02 8.194139304099999632e-02 3.185421530140000179e-01 -7.613321250729999656e-01 -5.938376037600000268e-02 1.648282771569999916e-01 -4.487975571800000008e-02 2.482673876829999959e-01 -1.373609443609999925e+00 1.236051066489999989e-01 8.342507316199999912e-02 -1.310774018679999875e-01 -7.216205942179999555e-01 4.732647436090000048e-01 5.512028589000000228e-03 -6.028012617299999959e-02 8.206731180500000111e-02 5.012278579700000236e-01 -2.181765876529999926e-01 1.457233924630000066e-01 1.212437321579999949e-01 -1.029702515155000109e+00 -1.163799987888999965e+00 2.584126599439999783e-01 2.500028534090000254e-01 2.269357770069999891e-01 4.274687069929999916e-01 1.829398374270000127e-01 1.112296502030000050e-01 5.716350259460000194e-01 5.600131369409999671e-01 -2.566487330319999760e-01 1.380718535159999871e-01 -1.139132572499999968e-01 1.248347929520000066e-01 -5.279080115959999819e-01 3.198366010999999925e-02 5.359171630000000158e-02 -1.145473564830000041e-01 1.309095887579999895e-01 -2.470665886529999911e-01 -2.910878598700000208e-01 -1.686560766200000117e-02 1.029944174040000049e-01 -1.002474222455999930e+00 -9.056826997500000420e-02
8.749582312100000203e-02 -3.212977938670000255e-01 -1.781383780459999955e-01 1.503070796100000085e-02 -2.156291477149999969e-01 1.657400020220000103e-01 5.409460294199999741e-02 2.479592687590000122e-01 1.543753903220000112e-01 1.811956674930000066e-01 1.840220425469999976e-01 -2.323042920879999917e-01 -4.463105935100000060e-02 3.065591351399999873e-02 -4.298771197610000150e-01 1.621333635889999902e-01 1.185233694029999979e-01 4.380408169980000155e-01 1.149595352120000025e-01 -8.669069059000000799e-03 1.904788973340000025e-01 4.550772755299999778e-02 -1.366997464910000015e-01 -2.112947186199999883e-01 -7.159446517399999932e-01 -4.681732269330000085e-01 4.685588944760000207e-01 1.380850140969999973e-01 6.957461430800000457e-01 -3.987654988120000188e-01 5.241436096589999760e-01 -1.160072454495000072e+00 -2.042122866030000039e-01 -2.680786357259999919e-01 6.953847998790000373e-01 1.427737292129999946e-01 -2.879530121499999928e-02 3.930678173580000045e-01 1.060866140530000029e-01 2.526533175160000089e-01 -1.926009966049999911e-01 -2.803377605940000072e-01 -5.081688353429999472e-01 8.824559372700000459e-01 1.886936799195999992e+00 1.264299329699999919e-01 -1.357387836579999896e-01 -1.067277605946000074e+00 -3.196034286730000118e-01 1.456014353610000089e-01 1.984253217949999981e-01 6.191386316950000523e-01 -7.178631306999999628e-03 1.303796221759999929e-01 -5.345110880999999654e-03 2.145315613600000046e-02 -1.237826381000000026e-03 5.260955530800000279e-02 1.649004145350000117e-01 2.595716480740000165e-01 -6.773786661599999759e-01 5.953948726000000274e-03 -1.864501946169999924e-01 -1.998687084069999953e-01 -8.263551742010000201e-01 6.954064258700000389e-02 2.093567519600000038e-01 -3.469889321800000148e-02 3.171251264039999795e-01 -7.052290556000000432e-01 -8.475189369999999549e-04 -2.655660688400000163e-02 -2.531936880999999945e-02 -2.561409682490000117e-01 -5.167943397400000249e-02 -4.011424966899999889e-02 4.113981735539999907e-01 -7.987875698969999494e-01 -1.182620255149999938e-01 9.960796954999999453e-02 -6.872896332399999753e-02 2.593361929629999785e-01 -5.200563189689999533e-01 1.816347912210000137e-01 1.679309701799999999e-01 -2.642709984320000260e-01 -6.834325648560000133e-01 3.108985297290000060e-01 3.783937226700000156e-02 -1.402671306790000127e-01 1.360188747420000011e-01 1.332511438020000105e-01 -2.648201038660000228e-01 1.673174942039999946e-01 1.428051235149999931e-01 -5.475998423100000290e-01 -3.597458751970000201e-01 3.029656464889999845e-01 3.064800899790000033e-01 2.961105898260000258e-01 1.711057745850000089e-01 1.667192586479999961e-01 1.234952034359999978e-01 8.172647430799999668e-01 4.840503505090000269e-01 -1.256500465310000092e-01 1.748623389750000034e-01 -1.660479041830000002e-01 1.381210065859999891e-01 -3.319530548579999740e-01 3.335336540299999736e-02 1.088248476360000050e-01 -1.313474147650000035e-01 3.524434771839999869e-01 -3.338160538289999812e-01 -4.589072177790000095e-01 3.302143164400000303e-02 1.850631222680000076e-01 -4.061871228460000038e-01 -1.479204678009999885e-01
-1.585390226700000155e-02 -2.005594555269999968e-01 -7.080274073200000517e-02 -1.359784517000000052e-03 -1.228373121210000057e-01 3.392499012599999725e-02 2.189748424890000100e-01 2.203895473199999830e-02 1.587348040500000113e-01 2.340358301590000079e-01 3.423345633000000193e-02 -2.402466271279999899e-01 2.335135207199999854e-02 9.817202485499999798e-02 -2.481574958770000061e-01 2.199148330510000138e-01 1.628649828360000107e-01 2.872345348240000207e-01 1.564995665999999869e-02 -1.809446635360000000e-01 1.633923882449999920e-01 -2.763024190999999880e-03 -2.868614687000000107e-01 -1.545647302760000119e-01 -7.118751914690000238e-01 -3.509268777539999995e-01 4.563483122900000022e-01 2.314324743539999951e-01 3.286320801879999975e-01 -2.289025440789999866e-01 6.332293884059999600e-01 -6.128032895389999846e-01 -2.562489182380000008e-01 -3.620829375490000057e-01 4.013544450250000062e-01 2.845644169699999837e-02 1.713421432599999961e-02 6.057314860789999589e-01 2.016598511100000102e-01 -2.164780978549999957e-01 -2.336295071560000047e-01 -3.776705913500000289e-02 5.756175160100000104e-02 5.864903164670000058e-01 1.168929712713000058e+00 -2.804339211249999853e-01 3.456290796900000212e-02 -1.489948493588999945e+00 -4.923289016899999870e-01 -1.227681438899999936e-02 5.439674222520000102e-01 2.650504213439999757e-01 2.893961244699999949e-02 1.394496533919999948e-01 -4.172873310099999705e-02 -1.874873549240000103e-01 4.494617991199999912e-02 1.216498062139999975e-01 -3.465718870000000090e-02 -5.670547193420000243e-01 -3.106469564189999755e-01 -1.213086525400000060e-01 -3.782981668090000249e-01 -2.605979409679999859e-01 -1.202926365783000051e+00 5.918478053100000025e-02 1.112580646789999989e-01 -2.074125780749999926e-01 -2.485002550219999884e-01 -6.762206061559999926e-01 -9.756341141600000100e-02 5.900683434199999883e-02 -7.844286068799999345e-02 1.218028104300000053e-02 3.908496020700000240e-02 -2.223986662599999886e-01 3.047869244409999734e-01 -3.271783895140000231e-01 -5.770757178799999776e-02 -9.491490164900000248e-02 -6.059468758799999716e-02 1.847225093900000115e-01 9.206640178099999572e-01 1.167514603369999987e-01 2.441114856980000081e-01 -3.143764027950000095e-01 4.470746604310000261e-01 -1.305722163530000091e-01 7.608252328499999495e-02 -2.419931597270000012e-01 1.570603183439999995e-01 -5.115599734129999687e-01 -1.727904143300000028e-01 7.524340217599999325e-02 1.143301240719999945e-01 2.454409964919999909e-01 6.087254278849999478e-01 2.079093803569999899e-01 2.197874969339999873e-01 1.149301030930000023e-01 -4.142961406469999885e-01 -1.885659181800000000e-02 2.584310524899999933e-02 7.663602251140000376e-01 2.559385920400000097e-02 1.415853864180000032e-01 9.481262341200000221e-02 -1.384604503400000131e-01 1.248161925930000027e-01 1.876073167739999992e-01 -1.216607384700000086e-02 8.162142718600000346e-02 -1.070128004650000020e-01 5.812917015640000074e-01 -2.310360945820000012e-01 -4.871299418869999842e-01 2.886796264800000136e-02 1.846251135920000119e-01 7.937314177780000479e-01 -1.565974859079999892e-01
-1.707317659250000008e-01 -1.694233380709999903e-01 2.724228635199999957e-02 -5.683477144299999700e-02 -1.600944727799999967e-01 -1.353597494040000015e-01 3.904471662649999786e-01 -6.150453977300000125e-02 9.108787410299999665e-02 1.867224172149999917e-01 6.328361351300000603e-02 -2.115768729480000110e-01 1.722689191220000138e-01 -9.585838433000000436e-02 1.678311791709999889e-01 3.166994178620000100e-01 -6.986935508999999808e-03 -5.381264015300000342e-02 -8.101817220099999384e-02 -1.105643870430000064e-01 1.438586698869999958e-01 -2.895581753599999961e-02 -1.917345138950000139e-01 -7.516819333400000247e-02 -3.730759804029999960e-01 2.536653075199999871e-02 -1.064833814000000056e-03 2.561060742140000013e-01 -2.055522238999999904e-02 2.575188962239999824e-01 3.805191617329999887e-01 9.984461445999999463e-02 -1.214839877079999936e-01 -2.531844747349999980e-01 -8.146720810000000756e-03 -7.457227682500000565e-02 7.898485988700000571e-02 5.495807589119999781e-01 2.416373518970000023e-01 -5.452902986409999819e-01 -2.417980555860000103e-01 2.838630141879999735e-01 6.824032661419999757e-01 -1.625703606020000025e-01 2.074088743030000070e-01 -5.941058044500000523e-01 3.192553860490000006e-01 -1.076979125425999939e+00 -5.599584989370000043e-01 -3.050772416799999998e-01 -3.021373213779999789e-01 -4.887878231819999808e-01 8.617881102699999352e-02 2.080719541840000131e-01 -9.262801419799999991e-02 -2.318301070010000131e-01 8.378907011700000018e-02 1.754867916079999868e-01 -3.647032216250000181e-01 -1.936935316329999879e-01 8.273785415300000112e-01 -1.205469155649999957e-01 -5.590979911119999812e-01 -1.870448336470000028e-01 2.541939437629999743e-01 -5.306215917800000126e-02 -6.750780987799999411e-02 -3.610285497949999867e-01 -4.545029815809999985e-01 -6.319608962599999880e-02 -2.682543135329999995e-01 1.932862740949999880e-01 -1.518715432299999890e-01 1.913577988619999948e-01 1.850642151790000134e-01 -4.054236187279999792e-01 8.020822949599999696e-02 2.786977388440000092e-01 2.709632919200000156e-02 -2.903952844930000055e-01 -2.398249950300000016e-02 6.383463257099999955e-02 6.137768506699999849e-01 -5.732839389799999907e-02 2.306472456360000034e-01 -1.730422566619999880e-01 8.327793702579999735e-01 -2.151102891070000023e-01 1.120942145730000061e-01 -2.758968685589999748e-01 1.310330500680000065e-01 -3.408016003020000184e-01 1.452160683590000001e-01 -3.781067216700000067e-02 5.090549960400000268e-02 8.974103186770000518e-01 4.097006486890000243e-01 1.209843862019999994e-01 -1.281972986299999978e-02 -2.019084532669999932e-01 -1.200107264259999973e-01 -2.061669135749999993e-01 -9.348597217399999548e-02 4.667811360990000158e-01 -5.521611648490000190e-01 1.596032058369999951e-01 -8.267081861199999937e-02 -3.123611924499999914e-02 1.088642219749999945e-01 4.229625792889999958e-01 -5.275555261999999995e-02 -6.432040445000000370e-03 -3.906475487100000143e-02 3.707341355400000094e-01 -5.894048061099999708e-02 -3.642426466800000040e-01 -6.626935774799999623e-02 1.355072749840000035e-01 8.341310147639999784e-01 -2.436902702299999918e-02
-2.660135216130000146e-01 -2.162135764960000095e-01 -2.633835358899999993e-02 -6.033887523099999706e-02 -2.601415542200000153e-01 -1.999853444880000108e-01 5.130788751270000114e-01 1.028451790100000027e-02 -6.764610782900000452e-02 1.339876857629999918e-01 2.292867825040000029e-01 -9.086110776399999867e-02 3.391651855269999793e-01 -4.494995850869999976e-01 5.666583737050000513e-01 3.649065769429999939e-01 -2.318534334800000096e-01 -3.470368129549999958e-01 -1.100038344110000066e-01 1.307486245739999942e-01 7.660036874999999468e-02 -9.659662602000000653e-02 6.531712150200000289e-02 7.294257578500000505e-02 1.021551248210000040e-01 5.380073371739999555e-01 -7.164150512679999805e-01 1.159294092570000018e-01 -5.948579611319999572e-01 4.398824508329999827e-01 -5.172338667710000282e-01 6.241820567229999783e-01 2.438552756799999832e-02 -1.012753798299999980e-02 -5.029148386630000189e-01 3.255103413739999785e-01 -6.947728069899999914e-02 3.146738019929999908e-01 1.682911228719999874e-01 -4.413664755510000037e-01 8.489515251500000248e-02 4.133738546540000058e-01 8.874072511610000547e-01 -8.722459281719999735e-01 -3.982826008090000203e-01 -3.080432695129999843e-01 5.494732115260000382e-01 5.581694890200000064e-02 -3.862347564929999866e-01 -6.801847003190000240e-01 -6.885609407460000497e-01 -6.512693102469999662e-01 1.506503561110000000e-01 2.283478105400000013e-01 -1.419513617060000066e-01 1.045329460059999938e-01 7.993930732800000327e-02 1.626888763190000031e-01 -6.852644521630000263e-01 2.797712568729999738e-01 7.246902564339999797e-01 9.584613215999999644e-03 -5.247291324559999470e-01 4.624186336100000183e-02 1.832594151853000009e+00 -1.531469390519999973e-01 -1.908199160279999973e-01 -3.864144068159999779e-01 -2.063141046799999920e-02 1.103250881282000107e+00 -3.861110056650000066e-01 2.948694680110000022e-01 -2.232485709260000062e-01 -2.156316128200000057e-02 2.640620992769999731e-01 -4.625787553019999887e-01 -1.140146175360000069e-01 8.295738992419999791e-01 5.418076626699999676e-02 -2.575724049800000026e-01 3.506004638199999857e-02 -2.273638618600000091e-02 -5.696967395280000401e-01 -2.736961295349999990e-01 4.592765163499999692e-02 3.129867766530000095e-01 1.896553912389999930e-01 -9.272412114999999816e-03 1.516638762020000031e-01 -1.136884336859999983e-01 2.264659882600000146e-02 4.081293506629999901e-01 5.412468867449999887e-01 -9.087058950800000479e-02 1.798377112300000163e-02 7.516427460250000303e-01 -1.197737683000000067e-02 1.433808065709999968e-01 -3.637040428409999970e-01 -4.652728099740000012e-01 8.984381447060000303e-01 -2.912924708490000070e-01 -1.889871996099999896e-01 1.057772773359999946e-01 -7.689624426429999549e-01 -8.104029112900000553e-02 -2.415459716049999928e-01 9.980418286700000474e-02 5.921592521699999695e-02 1.048143062430000050e-01 -3.001630463300000023e-02 -9.417248559900000260e-02 6.852033405999999674e-03 -5.771736889590000086e-01 1.390085408610000073e-01 -7.701399482300000376e-02 -2.001481535169999937e-01 8.515204064299999875e-02 -2.471486845339999905e-01 1.148808091129999986e-01
-1.747932650100000040e-01 -1.967264578800000108e-01 -1.953054071130000124e-01 5.080499475400000048e-02 -2.565832656049999994e-01 -2.010293133759999962e-01 6.215804232649999594e-01 5.732823670799999660e-02 -1.489750061300000039e-01 1.172485584249999963e-01 3.763269811519999730e-01 2.118072207600000048e-02 4.301034492840000167e-01 -5.599811848239999446e-01 6.698800263969999502e-01 2.664275563399999824e-01 -2.399131408959999934e-01 -3.928829139630000133e-01 -4.875366080099999971e-02 1.954024606850000012e-01 -2.354804956200000007e-02 -2.608326861740000169e-01 1.959281853900000092e-01 2.457936698550000076e-01 2.102836398830000009e-01 8.364817887480000547e-01 -6.414760607330000086e-01 -1.751656652140000103e-01 -5.342185004370000323e-01 -2.306522784599999987e-01 -9.477502407410000052e-01 1.001014473269000060e+00 6.629353563000000074e-03 2.549415694500000162e-01 -4.673481400280000142e-01 6.290855203470000490e-01 -3.348438079889999863e-01 2.445533953139999994e-01 1.131958992719999946e-01 -1.397321820130000003e-01 1.888592871349999980e-01 3.517769077349999773e-01 7.390890792030000433e-01 -1.216423196655000094e+00 -5.188232571790000192e-01 2.922783873329999893e-01 5.496992250600000185e-01 9.472641387079999697e-01 -1.865217120699999911e-02 -9.827130181069999582e-01 6.503697111799999764e-02 -6.290284405200000095e-02 1.549535576490000122e-01 7.967869061599999747e-02 -1.057813487879999959e-01 3.504879410510000071e-01 7.299189970300000441e-02 9.096585949499999546e-02 -8.776840015110000115e-01 -6.875049270600000484e-02 -5.096844081219999989e-01 2.908855093139999792e-01 -2.948343425250000149e-01 3.265437769530000200e-01 9.352121014969999591e-01 8.532343141400000608e-02 -1.755138336959999878e-01 -2.363749055359999907e-01 5.300809121080000130e-01 1.153113286578000052e+00 -3.336855372240000173e-01 6.949660309300000061e-02 -2.063947104799999932e-01 -2.472471481980000052e-01 2.003529874349999906e-01 -2.942673401829999924e-01 -2.633293424329999910e-01 6.496936550249999831e-01 -5.474562606899999878e-02 -9.215501238600000422e-02 1.434934650270000001e-01 2.260380482500000052e-02 -4.526814908449999786e-01 -2.651183351149999923e-01 -3.074101871150000109e-01 8.933663555380000343e-01 -2.197639094770000023e-01 4.443273977400000185e-02 1.743992430909999947e-01 2.515234977770000047e-01 1.211624602899999924e-02 4.877697337440000114e-01 5.842455099809999997e-01 -3.868174651299999961e-02 6.879189054999999831e-02 -3.658221380610000018e-01 3.552181931299999706e-02 2.332103792659999952e-01 -5.678296021659999804e-01 -5.173874097489999935e-01 6.106934708419999858e-01 -2.946462626829999820e-01 -2.379348074250000056e-01 -2.258291595630000093e-01 -1.832772668019999884e-01 -1.350548164910000126e-01 -2.396605871559999990e-01 1.259500907439999873e-01 -1.828550422900000055e-02 -1.307578382579999976e-01 -2.283722119700000094e-02 -1.169734117620000041e-01 8.822613405399999664e-02 -1.130708763184999910e+00 2.695642761839999735e-01 2.720618597159999985e-01 -2.314569308830000116e-01 -5.607779326600000058e-02 -6.523402822299999571e-01 1.550635993249999955e-01
9.632817561699999476e-02 -7.908596734200000478e-02 -3.016036423980000269e-01 1.497260218300000001e-01 -1.869453498839999950e-01 -3.549722092279999908e-01 7.660250109789999984e-01 2.880453723099999849e-02 3.458732839599999720e-02 -1.349406713099999926e-02 5.088508582170000460e-01 -8.472306197899999447e-02 3.706760767969999870e-01 -3.330379032670000017e-01 5.526550906280000008e-01 6.946903196499999711e-02 -2.633265074600000047e-02 -3.201522108600000083e-01 1.225642816379999972e-01 6.651993864699999592e-02 -3.383940286199999675e-02 -4.079500586809999829e-01 9.999085925200000557e-02 3.220019045079999809e-01 -1.656430593169999910e-01 6.046506884229999601e-01 7.454898562600000000e-02 -3.485048987480000027e-01 -3.925560348459999904e-01 -9.475014502580000331e-01 -3.217703878409999829e-01 8.767746105970000148e-01 3.427559432680000184e-01 3.861417499350000004e-01 -2.999529886030000148e-01 -8.564904745300000455e-02 -3.392237083669999986e-01 3.267735046529999798e-01 2.867384949160000085e-01 9.884167355200000615e-02 3.236739104270000000e-01 1.129143761869999957e-01 4.465528885330000142e-01 -1.029388461486000050e+00 -4.646123575650000226e-01 5.405677098829999583e-01 5.485331849819999883e-01 1.084406454627000027e+00 2.449516618289999947e-01 -1.033323226113999960e+00 6.226835106489999605e-01 4.477860590619999748e-01 4.448566655700000178e-02 -1.985887024459999928e-01 -1.290552429200000038e-02 5.231616015300000200e-02 5.767973660000000335e-02 -5.224357555800000080e-02 -8.566514225500000412e-01 -3.459948121840000224e-01 -1.079619985247999958e+00 5.911198706039999529e-01 6.475391420600000447e-02 4.794077238839999922e-01 -1.176209915812000073e+00 5.129429005260000007e-01 -8.284825779000000445e-02 -1.147158344000000045e-03 4.462889802930000149e-01 -3.058966465330000273e-01 -1.995637063600000025e-02 -4.290508512330000190e-01 -4.109670626700000218e-02 3.580349959999999990e-04 7.197019947799999928e-02 7.232624035399999596e-02 -3.703316699029999826e-01 -5.644616842099999671e-02 -2.568778070559999960e-01 5.012970485099999679e-02 2.973425276309999976e-01 2.058163577090000029e-01 4.202994810880000265e-01 4.105416596800000317e-02 -5.817049904500000146e-01 1.122419436828000050e+00 -2.994401269640000196e-01 -2.277043074899999867e-02 9.056629604299999692e-02 6.639722791419999659e-01 1.477515378070000107e-01 -1.026816342319999964e-01 6.431503675800000208e-02 1.024286923770000024e-01 1.235382795489999991e-01 -1.049054371978000111e+00 -6.088001963300000013e-02 2.745655572099999775e-01 -6.083723257649999994e-01 -2.922395414189999929e-01 -7.800690883940000209e-01 -6.419217760699999498e-02 -3.042974630920000090e-01 -5.130093783429999776e-01 5.028273569800000287e-01 9.427146986999999922e-02 -2.052451660599999977e-02 1.699201236299999890e-02 -4.100343044799999864e-02 1.214345044129999940e-01 -1.098572321900000009e-01 -4.383668444100000117e-02 3.516932159710000061e-01 -2.783122995219999840e-01 1.911247841479999932e-01 5.609574538120000176e-01 -8.122417390899999701e-02 -2.579499047070000217e-01 3.274798260500000335e-02 -5.984457392499999834e-02
3.108065399439999821e-01 5.468586361999999701e-02 -3.096445495769999945e-01 1.360965299559999953e-01 -1.585367437359999909e-01 -5.910481764599999632e-01 8.668686012630000270e-01 -3.010287858999999983e-03 4.097994804819999892e-01 -3.266592882559999911e-01 6.847438163700000358e-01 -4.002393394509999869e-01 1.841987515799999864e-01 -1.417852364159999934e-01 4.146256730019999837e-01 -1.725726119210000131e-01 1.828104093930000007e-01 -3.064515873040000171e-01 3.998989173870000080e-01 7.947557411000000238e-02 9.952716200099999411e-02 -4.289334465040000044e-01 -3.291403076899999947e-02 2.798613578949999958e-01 -4.273734254739999794e-01 1.886742873260000009e-01 3.912239407700000005e-01 -1.087828121749999932e-01 -2.819584402049999938e-01 -8.099991977610000449e-01 -1.306164246999999947e-03 1.461690259010000048e-01 7.596683750789999801e-01 1.994428636120000042e-01 -2.065367373520000105e-01 -7.712107884190000373e-01 -1.309643421339999891e-01 2.997039675709999851e-01 5.362338686730000470e-01 8.215370553799999920e-02 1.116098726799999996e-01 -1.876354889769999978e-01 1.753204386910000023e-01 -3.308250448930000198e-01 -3.626414058210000180e-01 2.529944186620000091e-01 3.793756706320000061e-01 4.608041439880000145e-01 3.874922191230000257e-01 -8.302959009510000321e-01 2.198905077620000037e-01 4.136414198419999799e-01 -1.698603070290000128e-01 -4.946252344340000273e-01 -8.426607339999999530e-04 -4.327755998460000031e-01 4.017623712599999869e-02 -3.211987682960000257e-01 -6.118242076109999816e-01 1.338068589689999921e-01 -3.791212992890000133e-01 7.271447722760000509e-01 5.451975276120000213e-01 2.400222463499999959e-01 -1.589979039246999903e+00 7.173101839459999907e-01 -1.742643410299999848e-02 2.411253868730000027e-01 -2.074093187250000137e-01 -1.175258364168999980e+00 4.120985532790000239e-01 -7.207188280340000031e-01 1.617964530999999873e-01 2.541984513180000071e-01 -4.255210349300000278e-02 2.897804859520000109e-01 -3.488437879230000260e-01 -4.086650292180000199e-01 -2.828227441150000243e-01 9.635937133800000221e-02 3.656230961610000274e-01 3.665660691820000205e-01 2.946817352969999804e-01 4.126943401190000249e-01 -5.460404565759999773e-01 8.694996603929999734e-01 -4.931335635549999874e-01 -7.387966347999999628e-03 -8.775098126499999984e-02 9.178129591889999661e-01 3.236385070369999784e-01 -3.411716049110000148e-01 -5.824898158329999687e-01 4.807046914490000211e-01 1.342410377700000053e-02 -5.736925773480000545e-01 -4.250786648989999805e-01 1.450105147490000079e-01 -7.259970331220000350e-01 1.585284984689999954e-01 -9.751133738320000299e-01 4.198297490119999864e-01 -2.930284030549999974e-01 -6.513227083810000373e-01 6.492282751539999452e-01 1.045786162230000066e-01 2.645458510690000264e-01 -6.080967623300000124e-02 1.353997560900000070e-02 2.192297347130000018e-01 -1.218930143020000023e-01 8.027310524899999855e-02 4.333651744670000139e-01 5.630432679660000161e-01 -1.023423668529999941e-01 6.053113707720000347e-01 1.706997555110000009e-01 -4.812028350740000238e-01 4.912608643040000111e-01 -3.362000323479999997e-01