-1.227820077262204101e+01 -2.307710143662942137e+00 -2.544469937048967623e-01 -2.307710143662942137e+00 -1.459443570169620585e+01 -1.266719727660273076e+00 -2.544469937048967623e-01 -1.266719727660273076e+00 -1.220514595850719530e+01
-9.536782799283811229e+00 -2.337311299854882396e+00 -2.642197546449857049e-01 -2.337311299854882396e+00 -1.071987775798827336e+01 -1.197220112877816156e+00 -2.642197546449857049e-01 -1.197220112877816156e+00 -9.216902145031724558e+00
-5.521917695598100195e+00 -2.411263096385391158e+00 -2.511195127580500563e-01 -2.411263096385391158e+00 -6.447118549103362461e+00 -1.018549325184233911e+00 -2.511195127580500563e-01 -1.018549325184233911e+00 -6.603082495626003023e+00
-5.719356133439381651e-01 -2.682614653844453301e+00 -1.585479941570331897e-01 -2.682614653844453301e+00 -1.078227514014317379e+00 -8.686575024316096627e-01 -1.585479941570331897e-01 -8.686575024316096627e-01 -3.676377689254538783e+00
5.393301805917071867e+00 -3.010333222311384116e+00 -1.709068114583152942e-01 -3.010333222311384116e+00 5.901774071380300413e+00 -6.995343550653286835e-01 -1.709068114583152942e-01 -6.995343550653286835e-01 1.516990121250215484e+00
9.835725775950631800e+00 -3.256637635407368503e+00 1.761536292530170231e-02 -3.256637635407368503e+00 1.270371694441676524e+01 -3.788814332651921357e-01 1.761536292530170231e-02 -3.788814332651921357e-01 6.762567913285900012e+00
9.369067592783389742e+00 -3.539300161965753588e+00 7.625904095153812623e-01 -3.539300161965753588e+00 1.410954268445928861e+01 -2.002314328502914909e-01 7.625904095153812623e-01 -2.002314328502914909e-01 8.301332040746926211e+00
4.743528788434917765e+00 -3.681627343474055181e+00 1.444757881024940627e+00 -3.681627343474055181e+00 1.176245125423103488e+01 -3.168909138418238292e-01 1.444757881024940627e+00 -3.168909138418238292e-01 4.833593122629415539e+00
-4.602784112752631995e-01 -3.399940778597923430e+00 1.762256478712342478e+00 -3.399940778597923430e+00 7.389588204047895736e+00 -1.809867458386497097e-01 1.762256478712342478e+00 -1.809867458386497097e-01 -8.834250044180830264e-01
-3.817002790905995369e+00 -2.847077439140683452e+00 1.996811092695127243e+00 -2.847077439140683452e+00 1.591443781236904442e+00 3.980506984683090943e-02 1.996811092695127243e+00 3.980506984683090943e-02 -4.796899644142602170e+00
-3.650224987038712676e+00 -2.542781466122089551e+00 2.097944475950840548e+00 -2.542781466122089551e+00 -1.511157629299821448e+00 -1.071014253793300536e-01 2.097944475950840548e+00 -1.071014253793300536e-01 -5.015812207053493843e+00
-7.460534793225491734e-01 -2.757059945743789431e+00 1.750340523027560824e+00 -2.757059945743789431e+00 -1.749428227887778187e+00 -9.045643062506258936e-01 1.750340523027560824e+00 -9.045643062506258936e-01 -2.010295391274151910e+00
2.337286828421786811e-01 -3.246751696491533057e+00 1.001964275940149030e+00 -3.246751696491533057e+00 -7.762198706672335247e-01 -2.024661087363931244e+00 1.001964275940149030e+00 -2.024661087363931244e+00 -1.940488984156702790e+00
-3.381334152575149687e+00 -3.545004057571595535e+00 3.508931894566051923e-01 -3.545004057571595535e+00 -2.352100284173778810e+00 -2.458791446251962665e+00 3.508931894566051923e-01 -2.458791446251962665e+00 -7.387096901372190771e+00
-6.412071004411894037e+00 -3.558998804953100947e+00 -4.757731660466463230e-02 -3.558998804953100947e+00 -5.442243809090136608e+00 -2.450204200857437176e+00 -4.757731660466463230e-02 -2.450204200857437176e+00 -1.172624376531847012e+01
-6.515228704667315185e+00 -3.583328207725102299e+00 -3.034496739834420809e-01 -3.583328207725102299e+00 -7.373953610259528446e+00 -2.423885685501171228e+00 -3.034496739834420809e-01 -2.423885685501171228e+00 -1.194560795181072343e+01
-3.351910668905152324e+00 -3.476033504469133728e+00 -5.748227681636992603e-01 -3.476033504469133728e+00 -7.257650765498737222e+00 -2.227560834971634485e+00 -5.748227681636992603e-01 -2.227560834971634485e+00 -8.729816267186258472e+00
1.370684732988574739e+00 -3.207306884050872497e+00 -9.993436935678727817e-01 -3.207306884050872497e+00 -4.473395128429404011e+00 -2.050350386469030894e+00 -9.993436935678727817e-01 -2.050350386469030894e+00 -3.229514531907702324e+00
5.043978288677621435e+00 -3.103108780003573486e+00 -1.102919913189916112e+00 -3.103108780003573486e+00 -5.418017408446922367e-01 -2.015908173724259012e+00 -1.102919913189916112e+00 -2.015908173724259012e+00 4.090037491027198158e+00
7.521415656034938557e+00 -2.715264076748313382e+00 -1.024097695923390061e+00 -2.715264076748313382e+00 2.419080891768270014e+00 -1.803165546255225182e+00 -1.024097695923390061e+00 -1.803165546255225182e+00 9.917651345010609631e+00
8.629302863577633431e+00 -2.054445547626911228e+00 -1.216954242851171042e+00 -2.054445547626911228e+00 2.883877473555491733e+00 -1.584054899449480081e+00 -1.216954242851171042e+00 -1.584054899449480081e+00 1.020993566891980464e+01
6.919822483360758447e+00 -1.521511650465373178e+00 -1.441417642384704489e+00 -1.521511650465373178e+00 8.129331518997329198e-01 -1.373261328785979618e+00 -1.441417642384704489e+00 -1.373261328785979618e+00 7.616666608861931032e+00
3.398034666987353347e+00 -1.472529561353859373e+00 -1.235291814289390944e+00 -1.472529561353859373e+00 -2.112406981366682590e+00 -1.461318127762830210e+00 -1.235291814289390944e+00 -1.461318127762830210e+00 1.181095404488200717e+00
2.046545726461175718e+00 -1.722581703516641305e+00 -9.044459123332104777e-01 -1.722581703516641305e+00 -3.950295225442110869e+00 -1.680115181037521666e+00 -9.044459123332104777e-01 -1.680115181037521666e+00 -4.370646968476871841e+00
7.777473916351743677e-01 -1.675027949265182281e+00 -1.288993085531773941e+00 -1.675027949265182281e+00 -6.228576058982036479e+00 -1.580065111920128329e+00 -1.288993085531773941e+00 -1.580065111920128329e+00 -7.592280692673456066e+00
-1.779402132219066068e+00 -9.462854185343937408e-01 -2.262984362158536378e+00 -9.462854185343937408e-01 -9.797330455497911927e+00 -1.397418254446504582e+00 -2.262984362158536378e+00 -1.397418254446504582e+00 -1.026373090597735604e+01
-2.979221567606281873e+00 -5.249191501298307028e-01 -3.505441477073539591e+00 -5.249191501298307028e-01 -1.173556267250209473e+01 -1.512851437463235138e+00 -3.505441477073539591e+00 -1.512851437463235138e+00 -1.030985339836771608e+01
-1.061262473624813074e+00 -7.867995749420781948e-01 -4.711499253997531333e+00 -7.867995749420781948e-01 -1.149594434080476546e+01 -1.944430937738816478e+00 -4.711499253997531333e+00 -1.944430937738816478e+00 -7.260092037250756469e+00
2.298681308602292361e+00 -1.026116325190003176e+00 -5.484563361259263026e+00 -1.026116325190003176e+00 -9.824776467604174002e+00 -2.202697001651359177e+00 -5.484563361259263026e+00 -2.202697001651359177e+00 -4.166903130871355998e+00
5.376917561615230490e+00 -1.257493787631043469e+00 -5.524766993560424666e+00 -1.257493787631043469e+00 -7.750828123183944207e+00 -2.053018990471969119e+00 -5.524766993560424666e+00 -2.053018990471969119e+00 -9.896306563344515750e-01
5.845089041915282557e+00 -1.579257676819306067e+00 -5.268635571027973974e+00 -1.579257676819306067e+00 -5.082236433094857730e+00 -2.037960141209146592e+00 -5.268635571027973974e+00 -2.037960141209146592e+00 3.301710291620216342e+00
4.201625172583624668e+00 -1.647112435417827037e+00 -5.029635199565303694e+00 -1.647112435417827037e+00 -1.756487724329913069e+00 -2.285769837499901147e+00 -5.029635199565303694e+00 -2.285769837499901147e+00 6.596344799818001370e+00
4.192367711035200450e+00 -1.582360542021538974e+00 -4.326023768857589324e+00 -1.582360542021538974e+00 6.992441306220683606e-01 -2.166581273612266934e+00 -4.326023768857589324e+00 -2.166581273612266934e+00 8.475761291372208461e+00
3.857990206472804218e+00 -1.692254998680277067e+00 -3.547321932042730275e+00 -1.692254998680277067e+00 3.652429546283203488e-01 -1.325255410694326619e+00 -3.547321932042730275e+00 -1.325255410694326619e+00 6.427006132232830460e+00
2.588002678300595161e+00 -1.933380666963730565e+00 -2.896195014727438899e+00 -1.933380666963730565e+00 -3.355156653965956526e+00 -9.952384401641429790e-01 -2.896195014727438899e+00 -9.952384401641429790e-01 3.980300019239991771e-01
1.601435260118276416e+00 -1.752999131037948466e+00 -2.446750656922223932e+00 -1.752999131037948466e+00 -8.070907739744988874e+00 -1.410560222958969545e+00 -2.446750656922223932e+00 -1.410560222958969545e+00 -5.349548588506056745e+00
1.972653824368858499e+00 -1.508743839642193940e+00 -2.156756826904310920e+00 -1.508743839642193940e+00 -9.248415734852711623e+00 -2.057869766395374889e+00 -2.156756826904310920e+00 -2.057869766395374889e+00 -8.232546448608957235e+00
-7.246035356347968470e-01 -1.796981530193607179e+00 -2.146862987919933019e+00 -1.796981530193607179e+00 -9.584276144838575817e+00 -2.597840304736497075e+00 -2.146862987919933019e+00 -2.597840304736497075e+00 -9.217020471859530772e+00
-2.586189204955992249e+00 -2.288723535368430984e+00 -2.191951287187908992e+00 -2.288723535368430984e+00 -8.279785923241714585e+00 -2.507895396007914446e+00 -2.191951287187908992e+00 -2.507895396007914446e+00 -8.431955897719172199e+00
-2.037847656005683294e+00 -2.607489240544936582e+00 -2.050070588155653351e+00 -2.607489240544936582e+00 -5.585438601922123603e+00 -2.048361947987883180e+00 -2.050070588155653351e+00 -2.048361947987883180e+00 -7.295240952666496526e+00
5.253358887983977654e-01 -2.756854782527366154e+00 -1.553150172571261756e+00 -2.756854782527366154e+00 -3.081219295256596880e+00 -1.764043930116271364e+00 -1.553150172571261756e+00 -1.764043930116271364e+00 -6.103550265525545804e+00
3.375527819694162712e+00 -2.554794792184855723e+00 -1.154447657307317909e+00 -2.554794792184855723e+00 -1.567830391678693147e-01 -1.563118796649972664e+00 -1.154447657307317909e+00 -1.563118796649972664e+00 -4.531113626514375881e+00
6.067996053502454856e+00 -1.793424538989463635e+00 -1.261122320870534885e+00 -1.793424538989463635e+00 3.084791671230954435e+00 -1.244155686190420163e+00 -1.261122320870534885e+00 -1.244155686190420163e+00 -1.985460570451403006e+00
7.200607749705187466e+00 -1.253017417794222377e+00 -1.052560589324080365e+00 -1.253017417794222377e+00 6.092900902936564833e+00 -1.134140709095878385e+00 -1.052560589324080365e+00 -1.134140709095878385e+00 1.521979183703119132e+00
6.085706527552315670e+00 -1.467371901761306274e+00 -5.566364151086451439e-01 -1.467371901761306274e+00 7.550952556124979509e+00 -1.202454671637566586e+00 -5.566364151086451439e-01 -1.202454671637566586e+00 3.588332748868457323e+00
4.841340899125867736e+00 -1.692173495743755529e+00 -5.088234246670458871e-01 -1.692173495743755529e+00 7.100766923922805951e+00 -1.162558954213618323e+00 -5.088234246670458871e-01 -1.162558954213618323e+00 5.512696337438896421e+00
1.623451238400808405e+00 -1.609134722036739573e+00 -6.715509553918466157e-01 -1.609134722036739573e+00 4.503297965088395749e+00 -1.069633947932757456e+00 -6.715509553918466157e-01 -1.069633947932757456e+00 4.890750577507018804e+00
-2.498705940570266293e+00 -1.657543463996117294e+00 -5.717058999714665912e-01 -1.657543463996117294e+00 1.792847732235221869e+00 -1.246902066852296986e+00 -5.717058999714665912e-01 -1.246902066852296986e+00 1.182467225483838646e+00
-6.111858537649800915e+00 -2.167020317305370369e+00 -2.106161728634454444e-01 -2.167020317305370369e+00 -8.445507541563560538e-01 -1.718949401501757679e+00 -2.106161728634454444e-01 -1.718949401501757679e+00 -2.544687424142844989e+00
-8.780213114447278144e+00 -2.914337218079567471e+00 9.431156872130353613e-03 -2.914337218079567471e+00 -2.405661080132457386e+00 -2.033031518478199740e+00 9.431156872130353613e-03 -2.033031518478199740e+00 -5.683060765807947945e+00
-9.598429853419419899e+00 -3.407321614305380830e+00 -1.238482691225266524e-01 -3.407321614305380830e+00 -3.750823283933689911e+00 -2.057918540745456326e+00 -1.238482691225266524e-01 -2.057918540745456326e+00 -7.609469562801473685e+00
-8.368163721836861413e+00 -3.334702604456434294e+00 -5.102139830151597444e-01 -3.334702604456434294e+00 -4.514452764007879537e+00 -2.017611445676546378e+00 -5.102139830151597444e-01 -2.017611445676546378e+00 -7.182825792157228051e+00
-4.466720162718521792e+00 -2.648586021273140023e+00 -8.239507255367136684e-01 -2.648586021273140023e+00 -2.107144480551615739e+00 -1.869263091461527138e+00 -8.239507255367136684e-01 -1.869263091461527138e+00 -4.291527126537475922e+00
9.395807376007696554e-01 -1.740430723360530951e+00 -8.932786080721781818e-01 -1.740430723360530951e+00 2.160689431109551695e+00 -1.453878540538505959e+00 -8.932786080721781818e-01 -1.453878540538505959e+00 -2.447338618763596485e-01
5.041761690719691380e+00 -1.662510643257178122e+00 -7.225500392093643365e-01 -1.662510643257178122e+00 4.856556054047000082e+00 -8.164742841475646218e-01 -7.225500392093643365e-01 -8.164742841475646218e-01 2.551595142983154485e+00
4.538628569572114912e+00 -2.054366168932963532e+00 -7.848388267016757069e-01 -2.054366168932963532e+00 3.450015610855517778e+00 -2.867698391786182577e-01 -7.848388267016757069e-01 -2.867698391786182577e-01 2.921487797739288794e+00
2.361164253621041986e-01 -2.402319300404618385e+00 -1.232501786350140849e+00 -2.402319300404618385e+00 1.254055083176873475e-01 -8.146308023123652320e-02 -1.232501786350140849e+00 -8.146308023123652320e-02 1.929256876913350682e+00
-8.376854944941641845e-01 -2.994425419740463390e+00 -1.311659497844462452e+00 -2.994425419740463390e+00 -1.412476788661383820e+00 -2.429466279964897224e-01 -1.311659497844462452e+00 -2.429466279964897224e-01 2.964557355092788171e+00
1.963781096696986528e-01 -3.304465924362199658e+00 -8.308288048861816044e-01 -3.304465924362199658e+00 -1.776527506355686681e+00 -5.559729112855196220e-01 -8.308288048861816044e-01 -5.559729112855196220e-01 7.288109326207741212e+00
-1.761116919812247827e-01 -3.146326608436558203e+00 -8.656173210933940099e-02 -3.146326608436558203e+00 -2.745309795388243490e+00 -5.461904732404261331e-01 -8.656173210933940099e-02 -5.461904732404261331e-01 9.979066831753742761e+00
-2.087905033107612329e+00 -2.923150745393207295e+00 6.702704189139622182e-01 -2.923150745393207295e+00 -4.725963303577433550e+00 -3.687899295071779271e-01 6.702704189139622182e-01 -3.687899295071779271e-01 6.614339428671263121e+00
-5.250642423001923298e+00 -3.173863058927318015e+00 8.361348456970917331e-01 -3.173863058927318015e+00 -7.330690515979766175e+00 -6.459471348417343828e-01 8.361348456970917331e-01 -6.459471348417343828e-01 4.814030768543236527e-01
-8.255440500886917832e+00 -3.070821553667315129e+00 8.433446899802268248e-01 -3.070821553667315129e+00 -9.279345645973855028e+00 -1.482323477964680336e+00 8.433446899802268248e-01 -1.482323477964680336e+00 -4.121368019342233069e+00
-6.979262110312613565e+00 -2.654609042801513663e+00 7.343151843701550829e-01 -2.654609042801513663e+00 -8.007801312503817215e+00 -2.397395884460129079e+00 7.343151843701550829e-01 -2.397395884460129079e+00 -3.837156897402524081e+00
-2.701373007739384491e+00 -2.493049962742386327e+00 -3.071890946185988625e-02 -2.493049962742386327e+00 -4.075624766504048146e+00 -2.396839053819986187e+00 -3.071890946185988625e-02 -2.396839053819986187e+00 -1.263390245231047926e+00
-2.292530964976902563e+00 -2.318422247784429402e+00 -7.578505548882766840e-01 -2.318422247784429402e+00 -2.668291897532044654e+00 -2.339027341037597463e+00 -7.578505548882766840e-01 -2.339027341037597463e+00 8.678785370227632967e-01
-2.657214202731375430e+00 -1.971701703570260644e+00 -1.314089018285325094e+00 -1.971701703570260644e+00 -1.208910980713358896e+00 -2.530701766230409877e+00 -1.314089018285325094e+00 -2.530701766230409877e+00 1.013998307242435892e+00
-2.035749809554020295e+00 -8.923537810830024508e-01 -1.677582604251926623e+00 -8.923537810830024508e-01 3.383761721671617595e-01 -2.473527610024417012e+00 -1.677582604251926623e+00 -2.473527610024417012e+00 2.523658704317805590e+00
-2.083258119681659082e+00 4.048203790655576645e-02 -1.989199298215385658e+00 4.048203790655576645e-02 1.537107992212115803e+00 -2.328948469736868088e+00 -1.989199298215385658e+00 -2.328948469736868088e+00 4.988476037923507356e+00
-4.166223405097650101e+00 3.551167722142161698e-01 -2.247548286421842789e+00 3.551167722142161698e-01 1.467350723289698289e+00 -1.761710996984143796e+00 -2.247548286421842789e+00 -1.761710996984143796e+00 5.116788877962138216e+00
-4.587954960346251276e+00 3.379975604210919693e-01 -2.434987437839499336e+00 3.379975604210919693e-01 -1.093479891768902590e+00 -4.508792402679188127e-01 -2.434987437839499336e+00 -4.508792402679188127e-01 4.962461940713783548e+00
-4.804696276588757975e+00 9.466840758533498490e-02 -2.968431717535484626e+00 9.466840758533498490e-02 -1.846313714885088109e+00 8.684676924504697304e-01 -2.968431717535484626e+00 8.684676924504697304e-01 7.074166346790302207e+00
-3.913877448779379709e+00 -3.471743515014411585e-01 -3.660760671553438872e+00 -3.471743515014411585e-01 -1.374504277391689344e+00 1.123353952356894947e+00 -3.660760671553438872e+00 1.123353952356894947e+00 9.906446596960156725e+00
-3.502734279787817151e+00 -1.127109153052088475e+00 -3.322245619445423515e+00 -1.127109153052088475e+00 -3.006291414897143799e+00 6.266962730620500022e-01 -3.322245619445423515e+00 6.266962730620500022e-01 8.414876841147071573e+00
-6.503684142803103363e+00 -1.513167803700922631e+00 -2.701168003063813661e+00 -1.513167803700922631e+00 -8.186801106756810498e+00 2.338289577594901414e-01 -2.701168003063813661e+00 2.338289577594901414e-01 4.039868034320544865e+00
-1.023574975874114656e+01 -1.962853028381166709e+00 -2.789594002809113960e+00 -1.962853028381166709e+00 -1.233900917079884607e+01 -1.484514807095445865e-01 -2.789594002809113960e+00 -1.484514807095445865e-01 1.307969404252139756e-01
-1.012505048082719306e+01 -2.505838532684431463e+00 -2.599632376035826198e+00 -2.505838532684431463e+00 -1.128880625800900894e+01 -4.305387023797263568e-01 -2.599632376035826198e+00 -4.305387023797263568e-01 1.293060048070870716e+00
-8.311455493808933781e+00 -2.558305080777465434e+00 -1.971296399056449156e+00 -2.558305080777465434e+00 -8.878648026713239716e+00 -5.644508047114101812e-01 -1.971296399056449156e+00 -5.644508047114101812e-01 3.067344395803405899e+00
-6.714299264618381002e+00 -2.557496985602110584e+00 -1.335397629079696502e+00 -2.557496985602110584e+00 -5.096933006501374486e+00 -7.876278956018215593e-01 -1.335397629079696502e+00 -7.876278956018215593e-01 4.771616834682554931e+00
-5.052177078157607859e+00 -3.216691175657896196e+00 -1.290057026293487619e+00 -3.216691175657896196e+00 -1.566719303476494130e+00 -6.387366569415181550e-01 -1.290057026293487619e+00 -6.387366569415181550e-01 1.168356857378872515e+00
-9.560662430411751567e-01 -3.840440412581703100e+00 -1.846648274009367485e+00 -3.840440412581703100e+00 -9.445219974264522644e-01 -5.536386960867232254e-01 -1.846648274009367485e+00 -5.536386960867232254e-01 -7.695331786961823184e-01
3.008479021737129333e+00 -3.554523059778883720e+00 -2.553090486700040795e+00 -3.554523059778883720e+00 -8.257785105373222079e-01 -6.442953627226243318e-01 -2.553090486700040795e+00 -6.442953627226243318e-01 -7.457206026902344354e-01
8.480371554434517734e+00 -3.340087987968896943e+00 -2.809851360176047752e+00 -3.340087987968896943e+00 2.061611162357876559e+00 -1.193204290783270283e+00 -2.809851360176047752e+00 -1.193204290783270283e+00 1.952937432901620918e+00
1.109219442520269006e+01 -3.685549451240548446e+00 -2.394072092139368113e+00 -3.685549451240548446e+00 4.996318986442132015e+00 -1.927262836075934294e+00 -2.394072092139368113e+00 -1.927262836075934294e+00 4.163257727519695806e+00
6.864671682387679219e+00 -4.128887973976621772e+00 -1.948905607649971117e+00 -4.128887973976621772e+00 1.361073588962480319e+00 -1.543115746218732154e+00 -1.948905607649971117e+00 -1.543115746218732154e+00 1.757869418150833862e+00
-6.054859936162109157e-01 -4.264786939379591857e+00 -1.725276190886312566e+00 -4.264786939379591857e+00 -4.775248625002654457e+00 -9.783694012996286826e-01 -1.725276190886312566e+00 -9.783694012996286826e-01 -2.347408016551658427e+00
-4.442860598482502255e+00 -3.933060746088484105e+00 -1.571337357667417223e+00 -3.933060746088484105e+00 -6.962530194213641721e+00 -1.112383842713652315e+00 -1.571337357667417223e+00 -1.112383842713652315e+00 -4.975209092372833375e+00
-4.696806903472998229e+00 -3.893579371688744128e+00 -1.390713388094100722e+00 -3.893579371688744128e+00 -6.881305009265826556e+00 -1.456540536615921866e+00 -1.390713388094100722e+00 -1.456540536615921866e+00 -4.903866089210177748e+00
-3.116513500595606612e+00 -4.259241425537506842e+00 -1.131976279361548876e+00 -4.259241425537506842e+00 -5.796131100861794394e+00 -1.679588464648181567e+00 -1.131976279361548876e+00 -1.679588464648181567e+00 -2.505357746279784692e+00
-1.337050540776221208e+00 -4.623588461468590260e+00 -7.101512404242329435e-01 -4.623588461468590260e+00 -3.744575557790483344e+00 -1.681314350697486582e+00 -7.101512404242329435e-01 -1.681314350697486582e+00 1.141894232051278824e+00
-1.438225839290800723e+00 -4.777758341367327688e+00 -6.279157278045988111e-01 -4.777758341367327688e+00 -1.069957135557306538e+00 -1.715863736458408839e+00 -6.279157278045988111e-01 -1.715863736458408839e+00 3.792390569383627952e+00
-3.487669074422962812e+00 -4.293522161203011223e+00 -1.298290312786932077e+00 -4.293522161203011223e+00 -4.481828867739235944e-01 -1.511945287538994265e+00 -1.298290312786932077e+00 -1.511945287538994265e+00 2.647954914805435322e+00
-4.304265872322990738e+00 -3.227500345168811346e+00 -2.147469636510074942e+00 -3.227500345168811346e+00 -6.010833491675766221e-03 -1.127161514460251146e+00 -2.147469636510074942e+00 -1.127161514460251146e+00 6.136326868785262345e-01
-1.769630805543631169e+00 -2.314447578328246991e+00 -2.327732248824851968e+00 -2.314447578328246991e+00 2.296274546822556939e+00 -1.061310615877032459e+00 -2.327732248824851968e+00 -1.061310615877032459e+00 -5.649440920269910293e-01
-8.307922439415865376e-03 -2.301265834533911203e+00 -2.088809881235124788e+00 -2.301265834533911203e+00 2.275039329841703761e+00 -1.121860646344483792e+00 -2.088809881235124788e+00 -1.121860646344483792e+00 -2.152598864203147055e+00
-1.730042527907994510e-01 -2.695972835386676980e+00 -1.637637720962661136e+00 -2.695972835386676980e+00 1.572934126137734978e+00 -1.081656548489457359e+00 -1.637637720962661136e+00 -1.081656548489457359e+00 -2.831131435910765770e+00
8.295442521710129358e-02 -2.865808369296724223e+00 -1.042601983046580694e+00 -2.865808369296724223e+00 2.931467049015059612e+00 -1.150644866965237156e+00 -1.042601983046580694e+00 -1.150644866965237156e+00 -2.143642276458688212e+00
1.457818542460265654e+00 -2.860260685464095509e+00 -1.023831610320263152e+00 -2.860260685464095509e+00 4.214871339905555736e+00 -1.423253054957041019e+00 -1.023831610320263152e+00 -1.423253054957041019e+00 -2.086365785545720719e+00
1.948800583539645137e+00 -2.808338128531226108e+00 -1.619724204763668629e+00 -2.808338128531226108e+00 2.571185386229073888e+00 -1.690795822713961005e+00 -1.619724204763668629e+00 -1.690795822713961005e+00 -4.130933912085883897e+00
1.541119786607517028e+00 -2.728775237189295044e+00 -2.114083861521570906e+00 -2.728775237189295044e+00 -4.701666753440641999e-01 -1.750939008072241343e+00 -2.114083861521570906e+00 -1.750939008072241343e+00 -6.087887011553279493e+00
2.181520300473329232e+00 -2.662440965250472580e+00 -1.924863302605975157e+00 -2.662440965250472580e+00 -3.415344187192784209e-01 -1.792888114863864679e+00 -1.924863302605975157e+00 -1.792888114863864679e+00 -6.320710670239717111e+00
1.556527741439141854e+00 -2.371483223947284724e+00 -1.383298694994983258e+00 -2.371483223947284724e+00 -6.674479388896209509e-01 -2.180187786420663798e+00 -1.383298694994983258e+00 -2.180187786420663798e+00 -6.471045606944239026e+00
8.622388063678595449e-01 -1.961722035767256012e+00 -1.210470847435709096e+00 -1.961722035767256012e+00 -2.236498364507804482e+00 -2.412290985604036209e+00 -1.210470847435709096e+00 -2.412290985604036209e+00 -5.373253321944593708e+00
2.197442664915124855e+00 -1.628028668285047331e+00 -1.339583611265229957e+00 -1.628028668285047331e+00 -2.784604057645860387e+00 -2.283481596560141824e+00 -1.339583611265229957e+00 -2.283481596560141824e+00 -2.502661314839570217e+00
3.627736323198506696e+00 -1.462816744513252498e+00 -1.823584610817255536e+00 -1.462816744513252498e+00 -3.589786190968224933e+00 -2.015475753237558010e+00 -1.823584610817255536e+00 -2.015475753237558010e+00 -5.794197610643732066e-01
4.032114955652207122e+00 -1.316976131255016780e+00 -2.263141312528789140e+00 -1.316976131255016780e+00 -3.422838804114664679e+00 -1.579580392093910657e+00 -2.263141312528789140e+00 -1.579580392093910657e+00 7.023096020164143471e-01
3.981448791045768765e+00 -9.596954326453160933e-01 -2.170040670683949457e+00 -9.596954326453160933e-01 -3.081301964098386303e+00 -1.003091699435956219e+00 -2.170040670683949457e+00 -1.003091699435956219e+00 2.463027711659200758e+00
2.497364127274960488e+00 -5.014303400457801319e-01 -1.962393461947875117e+00 -5.014303400457801319e-01 -4.156852275323799084e+00 -6.175671496985434272e-01 -1.962393461947875117e+00 -6.175671496985434272e-01 1.986782138647159579e+00
-8.153566005861332400e-01 -3.544906191846394772e-01 -2.178661079357961050e+00 -3.544906191846394772e-01 -6.019745422445873295e+00 -7.000780272222829614e-01 -2.178661079357961050e+00 -7.000780272222829614e-01 5.570823161516819111e-01
-3.060584604911885442e+00 -7.612986396030537728e-01 -2.489978106957012383e+00 -7.612986396030537728e-01 -7.558755998703849954e+00 -8.253705676427606219e-01 -2.489978106957012383e+00 -8.253705676427606219e-01 1.264060004983870833e+00
-3.841745039965063668e+00 -1.220173374923940512e+00 -2.637840891478755445e+00 -1.220173374923940512e+00 -6.805489273021444241e+00 -1.138410242757135649e+00 -2.637840891478755445e+00 -1.138410242757135649e+00 3.176327509762464363e+00
-1.857616008700031074e+00 -1.340120644588612020e+00 -2.691809553414872713e+00 -1.340120644588612020e+00 -3.977432646974470298e+00 -1.707564373885390507e+00 -2.691809553414872713e+00 -1.707564373885390507e+00 3.488070105313869629e+00
-3.352621173668199894e-01 -1.212384096207331563e+00 -2.888986477990342028e+00 -1.212384096207331563e+00 -2.568871308106592810e+00 -2.111961216710626310e+00 -2.888986477990342028e+00 -2.111961216710626310e+00 3.090373274632247647e-01
4.593148387814041667e-01 -1.339958181643996271e+00 -2.716612730932898678e+00 -1.339958181643996271e+00 -9.931642374339886281e-01 -2.085770898152695008e+00 -2.716612730932898678e+00 -2.085770898152695008e+00 -2.317833269921888650e+00
1.308737151731007131e+00 -2.378670674443109867e+00 -2.532887688618025379e+00 -2.378670674443109867e+00 -4.062643814773996276e-01 -2.022101290746522562e+00 -2.532887688618025379e+00 -2.022101290746522562e+00 -3.494468176900335177e+00
1.030773726033418436e+00 -3.672873385339568308e+00 -2.744839332474325655e+00 -3.672873385339568308e+00 1.153483371517435518e+00 -1.749987011473498777e+00 -2.744839332474325655e+00 -1.749987011473498777e+00 -2.112970594146270198e+00
-2.991195352180271438e-01 -4.055834110319907815e+00 -3.115331741152466805e+00 -4.055834110319907815e+00 2.613517782643239862e-01 -1.301456411879300390e+00 -3.115331741152466805e+00 -1.301456411879300390e+00 2.814103737791849857e-01
-1.145835374607107715e+00 -3.552308199783460907e+00 -3.626880548351696376e+00 -3.552308199783460907e+00 -1.303962497175851221e+00 -1.635426896522264695e+00 -3.626880548351696376e+00 -1.635426896522264695e+00 6.953344274352137866e-01
-9.310065295135943053e-01 -3.260604703099318602e+00 -4.192518359014767881e+00 -3.260604703099318602e+00 -2.039730543607316537e+00 -2.357195101689849359e+00 -4.192518359014767881e+00 -2.357195101689849359e+00 4.730906962257200310e-01
-6.320460462575027138e-01 -2.914285472460522275e+00 -4.389702303959843732e+00 -2.914285472460522275e+00 -4.479900514757013674e+00 -2.481255951481132538e+00 -4.389702303959843732e+00 -2.481255951481132538e+00 -3.601062892597192699e-01
-1.243531937090672779e+00 -2.107259202546656773e+00 -4.016177610181068225e+00 -2.107259202546656773e+00 -5.027749382069955253e+00 -2.124457383493968621e+00 -4.016177610181068225e+00 -2.124457383493968621e+00 -2.552920559274335144e+00
-2.425666056199256904e+00 -1.526702510774232691e+00 -3.068039863379827814e+00 -1.526702510774232691e+00 -7.419629295131256796e+00 -2.200643680407889935e+00 -3.068039863379827814e+00 -2.200643680407889935e+00 -3.790752131427815197e+00
-3.737734029916791823e+00 -1.299328057644096424e+00 -1.859631214824464029e+00 -1.299328057644096424e+00 -7.268373669093739053e+00 -1.595360192138346678e+00 -1.859631214824464029e+00 -1.595360192138346678e+00 -1.930187072378459323e+00
-6.106963537355990290e+00 -1.369383771916110604e+00 -1.630359628386074400e+00 -1.369383771916110604e+00 -5.959955714826924655e+00 -1.860581235962950331e-01 -1.630359628386074400e+00 -1.860581235962950331e-01 1.759388033427251363e+00
-5.365625381445094710e+00 -1.963219269048984028e+00 -2.754760796104934517e+00 -1.963219269048984028e+00 -2.648440980052856553e+00 2.545415394620579308e-01 -2.754760796104934517e+00 2.545415394620579308e-01 2.494509520825180182e+00
-3.781838348815443229e+00 -2.256779221353126363e+00 -3.535633345979267705e+00 -2.256779221353126363e+00 2.488531124878527123e+00 3.589741908563071626e-01 -3.535633345979267705e+00 3.589741908563071626e-01 3.529286047594482056e+00
-1.418782255784935886e+00 -2.101730212607658466e+00 -2.839545474092051158e+00 -2.101730212607658466e+00 2.759165955109213808e+00 9.941710754013648454e-01 -2.839545474092051158e+00 9.941710754013648454e-01 4.040416936975799622e+00
-9.944350602087399515e-01 -2.768953033656972096e+00 -1.685547438022255928e+00 -2.768953033656972096e+00 8.227209782516534675e-01 1.069282380985976832e+00 -1.685547438022255928e+00 1.069282380985976832e+00 3.480617087432237078e+00
-5.161754979465390525e-01 -4.188500974611105043e+00 -1.475651469923827452e+00 -4.188500974611105043e+00 -3.098980380244400479e-01 5.900324795298852454e-01 -1.475651469923827452e+00 5.900324795298852454e-01 4.038407666093322135e+00