7.968890678274545891e+00 0.000000000000000000e+00 0.000000000000000000e+00 0.000000000000000000e+00 7.968890678274545891e+00 0.000000000000000000e+00 0.000000000000000000e+00 0.000000000000000000e+00 7.968890678274545891e+00
7.966431899723015242e+00 0.000000000000000000e+00 0.000000000000000000e+00 0.000000000000000000e+00 7.966431899723015242e+00 0.000000000000000000e+00 0.000000000000000000e+00 0.000000000000000000e+00 7.966431899723015242e+00
7.964343668958500544e+00 0.000000000000000000e+00 0.000000000000000000e+00 0.000000000000000000e+00 7.964343668958500544e+00 0.000000000000000000e+00 0.000000000000000000e+00 0.000000000000000000e+00 7.964343668958500544e+00
7.967657449981378370e+00 0.000000000000000000e+00 0.000000000000000000e+00 0.000000000000000000e+00 7.967657449981378370e+00 0.000000000000000000e+00 0.000000000000000000e+00 0.000000000000000000e+00 7.967657449981378370e+00
7.974778959762823582e+00 0.000000000000000000e+00 0.000000000000000000e+00 0.000000000000000000e+00 7.974778959762823582e+00 0.000000000000000000e+00 0.000000000000000000e+00 0.000000000000000000e+00 7.974778959762823582e+00
7.981227105066357019e+00 0.000000000000000000e+00 0.000000000000000000e+00 0.000000000000000000e+00 7.981227105066357019e+00 0.000000000000000000e+00 0.000000000000000000e+00 0.000000000000000000e+00 7.981227105066357019e+00
7.984874056898404682e+00 0.000000000000000000e+00 0.000000000000000000e+00 0.000000000000000000e+00 7.984874056898404682e+00 0.000000000000000000e+00 0.000000000000000000e+00 0.000000000000000000e+00 7.984874056898404682e+00
7.987402462214142851e+00 0.000000000000000000e+00 0.000000000000000000e+00 0.000000000000000000e+00 7.987402462214142851e+00 0.000000000000000000e+00 0.000000000000000000e+00 0.000000000000000000e+00 7.987402462214142851e+00
7.992648840593408188e+00 0.000000000000000000e+00 0.000000000000000000e+00 0.000000000000000000e+00 7.992648840593408188e+00 0.000000000000000000e+00 0.000000000000000000e+00 0.000000000000000000e+00 7.992648840593408188e+00
8.001059824681250987e+00 0.000000000000000000e+00 0.000000000000000000e+00 0.000000000000000000e+00 8.001059824681250987e+00 0.000000000000000000e+00 0.000000000000000000e+00 0.000000000000000000e+00 8.001059824681250987e+00
8.009133138572824606e+00 0.000000000000000000e+00 0.000000000000000000e+00 0.000000000000000000e+00 8.009133138572824606e+00 0.000000000000000000e+00 0.000000000000000000e+00 0.000000000000000000e+00 8.009133138572824606e+00
8.014009818117189710e+00 0.000000000000000000e+00 0.000000000000000000e+00 0.000000000000000000e+00 8.014009818117189710e+00 0.000000000000000000e+00 0.000000000000000000e+00 0.000000000000000000e+00 8.014009818117189710e+00
8.015605060504494617e+00 0.000000000000000000e+00 0.000000000000000000e+00 0.000000000000000000e+00 8.015605060504494617e+00 0.000000000000000000e+00 0.000000000000000000e+00 0.000000000000000000e+00 8.015605060504494617e+00
8.016173113470609124e+00 0.000000000000000000e+00 0.000000000000000000e+00 0.000000000000000000e+00 8.016173113470609124e+00 0.000000000000000000e+00 0.000000000000000000e+00 0.000000000000000000e+00 8.016173113470609124e+00
8.015761480976090425e+00 0.000000000000000000e+00 0.000000000000000000e+00 0.000000000000000000e+00 8.015761480976090425e+00 0.000000000000000000e+00 0.000000000000000000e+00 0.000000000000000000e+00 8.015761480976090425e+00
8.011038720651720624e+00 0.000000000000000000e+00 0.000000000000000000e+00 0.000000000000000000e+00 8.011038720651720624e+00 0.000000000000000000e+00 0.000000000000000000e+00 0.000000000000000000e+00 8.011038720651720624e+00
8.000773529564252584e+00 0.000000000000000000e+00 0.000000000000000000e+00 0.000000000000000000e+00 8.000773529564252584e+00 0.000000000000000000e+00 0.000000000000000000e+00 0.000000000000000000e+00 8.000773529564252584e+00
7.987427828742124980e+00 0.000000000000000000e+00 0.000000000000000000e+00 0.000000000000000000e+00 7.987427828742124980e+00 0.000000000000000000e+00 0.000000000000000000e+00 0.000000000000000000e+00 7.987427828742124980e+00
7.975630488456167733e+00 0.000000000000000000e+00 0.000000000000000000e+00 0.000000000000000000e+00 7.975630488456167733e+00 0.000000000000000000e+00 0.000000000000000000e+00 0.000000000000000000e+00 7.975630488456167733e+00
7.968906324634479788e+00 0.000000000000000000e+00 0.000000000000000000e+00 0.000000000000000000e+00 7.968906324634479788e+00 0.000000000000000000e+00 0.000000000000000000e+00 0.000000000000000000e+00 7.968906324634479788e+00
7.966821495424384558e+00 0.000000000000000000e+00 0.000000000000000000e+00 0.000000000000000000e+00 7.966821495424384558e+00 0.000000000000000000e+00 0.000000000000000000e+00 0.000000000000000000e+00 7.966821495424384558e+00
7.967628880622832810e+00 0.000000000000000000e+00 0.000000000000000000e+00 0.000000000000000000e+00 7.967628880622832810e+00 0.000000000000000000e+00 0.000000000000000000e+00 0.000000000000000000e+00 7.967628880622832810e+00
7.970688903182421292e+00 0.000000000000000000e+00 0.000000000000000000e+00 0.000000000000000000e+00 7.970688903182421292e+00 0.000000000000000000e+00 0.000000000000000000e+00 0.000000000000000000e+00 7.970688903182421292e+00
7.976837652562368319e+00 0.000000000000000000e+00 0.000000000000000000e+00 0.000000000000000000e+00 7.976837652562368319e+00 0.000000000000000000e+00 0.000000000000000000e+00 0.000000000000000000e+00 7.976837652562368319e+00
7.987305259278671521e+00 0.000000000000000000e+00 0.000000000000000000e+00 0.000000000000000000e+00 7.987305259278671521e+00 0.000000000000000000e+00 0.000000000000000000e+00 0.000000000000000000e+00 7.987305259278671521e+00
7.999338050841299896e+00 0.000000000000000000e+00 0.000000000000000000e+00 0.000000000000000000e+00 7.999338050841299896e+00 0.000000000000000000e+00 0.000000000000000000e+00 0.000000000000000000e+00 7.999338050841299896e+00
8.007512373111438819e+00 0.000000000000000000e+00 0.000000000000000000e+00 0.000000000000000000e+00 8.007512373111438819e+00 0.000000000000000000e+00 0.000000000000000000e+00 0.000000000000000000e+00 8.007512373111438819e+00
8.008714245236101092e+00 0.000000000000000000e+00 0.000000000000000000e+00 0.000000000000000000e+00 8.008714245236101092e+00 0.000000000000000000e+00 0.000000000000000000e+00 0.000000000000000000e+00 8.008714245236101092e+00
8.003608459437542066e+00 0.000000000000000000e+00 0.000000000000000000e+00 0.000000000000000000e+00 8.003608459437542066e+00 0.000000000000000000e+00 0.000000000000000000e+00 0.000000000000000000e+00 8.003608459437542066e+00
7.995201841524566255e+00 0.000000000000000000e+00 0.000000000000000000e+00 0.000000000000000000e+00 7.995201841524566255e+00 0.000000000000000000e+00 0.000000000000000000e+00 0.000000000000000000e+00 7.995201841524566255e+00
7.985621062255416902e+00 0.000000000000000000e+00 0.000000000000000000e+00 0.000000000000000000e+00 7.985621062255416902e+00 0.000000000000000000e+00 0.000000000000000000e+00 0.000000000000000000e+00 7.985621062255416902e+00
7.976495133345011368e+00 0.000000000000000000e+00 0.000000000000000000e+00 0.000000000000000000e+00 7.976495133345011368e+00 0.000000000000000000e+00 0.000000000000000000e+00 0.000000000000000000e+00 7.976495133345011368e+00
7.969088633035058322e+00 0.000000000000000000e+00 0.000000000000000000e+00 0.000000000000000000e+00 7.969088633035058322e+00 0.000000000000000000e+00 0.000000000000000000e+00 0.000000000000000000e+00 7.969088633035058322e+00
7.964299424586184450e+00 0.000000000000000000e+00 0.000000000000000000e+00 0.000000000000000000e+00 7.964299424586184450e+00 0.000000000000000000e+00 0.000000000000000000e+00 0.000000000000000000e+00 7.964299424586184450e+00
7.963037196585948330e+00 0.000000000000000000e+00 0.000000000000000000e+00 0.000000000000000000e+00 7.963037196585948330e+00 0.000000000000000000e+00 0.000000000000000000e+00 0.000000000000000000e+00 7.963037196585948330e+00
7.964484170905728355e+00 0.000000000000000000e+00 0.000000000000000000e+00 0.000000000000000000e+00 7.964484170905728355e+00 0.000000000000000000e+00 0.000000000000000000e+00 0.000000000000000000e+00 7.964484170905728355e+00
7.967869055097316355e+00 0.000000000000000000e+00 0.000000000000000000e+00 0.000000000000000000e+00 7.967869055097316355e+00 0.000000000000000000e+00 0.000000000000000000e+00 0.000000000000000000e+00 7.967869055097316355e+00
7.973034247330914148e+00 0.000000000000000000e+00 0.000000000000000000e+00 0.000000000000000000e+00 7.973034247330914148e+00 0.000000000000000000e+00 0.000000000000000000e+00 0.000000000000000000e+00 7.973034247330914148e+00
7.980114095253177275e+00 0.000000000000000000e+00 0.000000000000000000e+00 0.000000000000000000e+00 7.980114095253177275e+00 0.000000000000000000e+00 0.000000000000000000e+00 0.000000000000000000e+00 7.980114095253177275e+00
7.988997692480515944e+00 0.000000000000000000e+00 0.000000000000000000e+00 0.000000000000000000e+00 7.988997692480515944e+00 0.000000000000000000e+00 0.000000000000000000e+00 0.000000000000000000e+00 7.988997692480515944e+00
7.997461208885966677e+00 0.000000000000000000e+00 0.000000000000000000e+00 0.000000000000000000e+00 7.997461208885966677e+00 0.000000000000000000e+00 0.000000000000000000e+00 0.000000000000000000e+00 7.997461208885966677e+00
8.002555152452693221e+00 0.000000000000000000e+00 0.000000000000000000e+00 0.000000000000000000e+00 8.002555152452693221e+00 0.000000000000000000e+00 0.000000000000000000e+00 0.000000000000000000e+00 8.002555152452693221e+00
8.004110605488037322e+00 0.000000000000000000e+00 0.000000000000000000e+00 0.000000000000000000e+00 8.004110605488037322e+00 0.000000000000000000e+00 0.000000000000000000e+00 0.000000000000000000e+00 8.004110605488037322e+00
8.003360121894047552e+00 0.000000000000000000e+00 0.000000000000000000e+00 0.000000000000000000e+00 8.003360121894047552e+00 0.000000000000000000e+00 0.000000000000000000e+00 0.000000000000000000e+00 8.003360121894047552e+00
8.000580293530576981e+00 0.000000000000000000e+00 0.000000000000000000e+00 0.000000000000000000e+00 8.000580293530576981e+00 0.000000000000000000e+00 0.000000000000000000e+00 0.000000000000000000e+00 8.000580293530576981e+00
7.996068877077648018e+00 0.000000000000000000e+00 0.000000000000000000e+00 0.000000000000000000e+00 7.996068877077648018e+00 0.000000000000000000e+00 0.000000000000000000e+00 0.000000000000000000e+00 7.996068877077648018e+00
7.989659606971337702e+00 0.000000000000000000e+00 0.000000000000000000e+00 0.000000000000000000e+00 7.989659606971337702e+00 0.000000000000000000e+00 0.000000000000000000e+00 0.000000000000000000e+00 7.989659606971337702e+00
7.982527983668108007e+00 0.000000000000000000e+00 0.000000000000000000e+00 0.000000000000000000e+00 7.982527983668108007e+00 0.000000000000000000e+00 0.000000000000000000e+00 0.000000000000000000e+00 7.982527983668108007e+00
7.977775206807523389e+00 0.000000000000000000e+00 0.000000000000000000e+00 0.000000000000000000e+00 7.977775206807523389e+00 0.000000000000000000e+00 0.000000000000000000e+00 0.000000000000000000e+00 7.977775206807523389e+00
7.976500013633919473e+00 0.000000000000000000e+00 0.000000000000000000e+00 0.000000000000000000e+00 7.976500013633919473e+00 0.000000000000000000e+00 0.000000000000000000e+00 0.000000000000000000e+00 7.976500013633919473e+00
7.977684810423872896e+00 0.000000000000000000e+00 0.000000000000000000e+00 0.000000000000000000e+00 7.977684810423872896e+00 0.000000000000000000e+00 0.000000000000000000e+00 0.000000000000000000e+00 7.977684810423872896e+00
7.980194490172400457e+00 0.000000000000000000e+00 0.000000000000000000e+00 0.000000000000000000e+00 7.980194490172400457e+00 0.000000000000000000e+00 0.000000000000000000e+00 0.000000000000000000e+00 7.980194490172400457e+00
7.983403146444408627e+00 0.000000000000000000e+00 0.000000000000000000e+00 0.000000000000000000e+00 7.983403146444408627e+00 0.000000000000000000e+00 0.000000000000000000e+00 0.000000000000000000e+00 7.983403146444408627e+00
7.988304648610886183e+00 0.000000000000000000e+00 0.000000000000000000e+00 0.000000000000000000e+00 7.988304648610886183e+00 0.000000000000000000e+00 0.000000000000000000e+00 0.000000000000000000e+00 7.988304648610886183e+00
7.996105623009127861e+00 0.000000000000000000e+00 0.000000000000000000e+00 0.000000000000000000e+00 7.996105623009127861e+00 0.000000000000000000e+00 0.000000000000000000e+00 0.000000000000000000e+00 7.996105623009127861e+00
8.004342190399965418e+00 0.000000000000000000e+00 0.000000000000000000e+00 0.000000000000000000e+00 8.004342190399965418e+00 0.000000000000000000e+00 0.000000000000000000e+00 0.000000000000000000e+00 8.004342190399965418e+00
8.010035815093747402e+00 0.000000000000000000e+00 0.000000000000000000e+00 0.000000000000000000e+00 8.010035815093747402e+00 0.000000000000000000e+00 0.000000000000000000e+00 0.000000000000000000e+00 8.010035815093747402e+00
8.012613845399828350e+00 0.000000000000000000e+00 0.000000000000000000e+00 0.000000000000000000e+00 8.012613845399828350e+00 0.000000000000000000e+00 0.000000000000000000e+00 0.000000000000000000e+00 8.012613845399828350e+00
8.012920384065299828e+00 0.000000000000000000e+00 0.000000000000000000e+00 0.000000000000000000e+00 8.012920384065299828e+00 0.000000000000000000e+00 0.000000000000000000e+00 0.000000000000000000e+00 8.012920384065299828e+00
8.011353731955420443e+00 0.000000000000000000e+00 0.000000000000000000e+00 0.000000000000000000e+00 8.011353731955420443e+00 0.000000000000000000e+00 0.000000000000000000e+00 0.000000000000000000e+00 8.011353731955420443e+00
8.007757998539544175e+00 0.000000000000000000e+00 0.000000000000000000e+00 0.000000000000000000e+00 8.007757998539544175e+00 0.000000000000000000e+00 0.000000000000000000e+00 0.000000000000000000e+00 8.007757998539544175e+00
8.000822292528557256e+00 0.000000000000000000e+00 0.000000000000000000e+00 0.000000000000000000e+00 8.000822292528557256e+00 0.000000000000000000e+00 0.000000000000000000e+00 0.000000000000000000e+00 8.000822292528557256e+00
7.990236607316949957e+00 0.000000000000000000e+00 0.000000000000000000e+00 0.000000000000000000e+00 7.990236607316949957e+00 0.000000000000000000e+00 0.000000000000000000e+00 0.000000000000000000e+00 7.990236607316949957e+00
7.978342678374986008e+00 0.000000000000000000e+00 0.000000000000000000e+00 0.000000000000000000e+00 7.978342678374986008e+00 0.000000000000000000e+00 0.000000000000000000e+00 0.000000000000000000e+00 7.978342678374986008e+00
7.967935572926418963e+00 0.000000000000000000e+00 0.000000000000000000e+00 0.000000000000000000e+00 7.967935572926418963e+00 0.000000000000000000e+00 0.000000000000000000e+00 0.000000000000000000e+00 7.967935572926418963e+00
7.960742368967666849e+00 0.000000000000000000e+00 0.000000000000000000e+00 0.000000000000000000e+00 7.960742368967666849e+00 0.000000000000000000e+00 0.000000000000000000e+00 0.000000000000000000e+00 7.960742368967666849e+00
7.957356273762050236e+00 0.000000000000000000e+00 0.000000000000000000e+00 0.000000000000000000e+00 7.957356273762050236e+00 0.000000000000000000e+00 0.000000000000000000e+00 0.000000000000000000e+00 7.957356273762050236e+00
7.957021282538361717e+00 0.000000000000000000e+00 0.000000000000000000e+00 0.000000000000000000e+00 7.957021282538361717e+00 0.000000000000000000e+00 0.000000000000000000e+00 0.000000000000000000e+00 7.957021282538361717e+00
7.959506037874360729e+00 0.000000000000000000e+00 0.000000000000000000e+00 0.000000000000000000e+00 7.959506037874360729e+00 0.000000000000000000e+00 0.000000000000000000e+00 0.000000000000000000e+00 7.959506037874360729e+00
7.965486219483635111e+00 0.000000000000000000e+00 0.000000000000000000e+00 0.000000000000000000e+00 7.965486219483635111e+00 0.000000000000000000e+00 0.000000000000000000e+00 0.000000000000000000e+00 7.965486219483635111e+00
7.974132861349961132e+00 0.000000000000000000e+00 0.000000000000000000e+00 0.000000000000000000e+00 7.974132861349961132e+00 0.000000000000000000e+00 0.000000000000000000e+00 0.000000000000000000e+00 7.974132861349961132e+00
7.984000965903179647e+00 0.000000000000000000e+00 0.000000000000000000e+00 0.000000000000000000e+00 7.984000965903179647e+00 0.000000000000000000e+00 0.000000000000000000e+00 0.000000000000000000e+00 7.984000965903179647e+00
7.995289429855381158e+00 0.000000000000000000e+00 0.000000000000000000e+00 0.000000000000000000e+00 7.995289429855381158e+00 0.000000000000000000e+00 0.000000000000000000e+00 0.000000000000000000e+00 7.995289429855381158e+00
8.007701599242196266e+00 0.000000000000000000e+00 0.000000000000000000e+00 0.000000000000000000e+00 8.007701599242196266e+00 0.000000000000000000e+00 0.000000000000000000e+00 0.000000000000000000e+00 8.007701599242196266e+00
8.017795408500191456e+00 0.000000000000000000e+00 0.000000000000000000e+00 0.000000000000000000e+00 8.017795408500191456e+00 0.000000000000000000e+00 0.000000000000000000e+00 0.000000000000000000e+00 8.017795408500191456e+00
8.021676745043048840e+00 0.000000000000000000e+00 0.000000000000000000e+00 0.000000000000000000e+00 8.021676745043048840e+00 0.000000000000000000e+00 0.000000000000000000e+00 0.000000000000000000e+00 8.021676745043048840e+00
8.018006966627398313e+00 0.000000000000000000e+00 0.000000000000000000e+00 0.000000000000000000e+00 8.018006966627398313e+00 0.000000000000000000e+00 0.000000000000000000e+00 0.000000000000000000e+00 8.018006966627398313e+00
8.008408473492215407e+00 0.000000000000000000e+00 0.000000000000000000e+00 0.000000000000000000e+00 8.008408473492215407e+00 0.000000000000000000e+00 0.000000000000000000e+00 0.000000000000000000e+00 8.008408473492215407e+00
7.996405339834868009e+00 0.000000000000000000e+00 0.000000000000000000e+00 0.000000000000000000e+00 7.996405339834868009e+00 0.000000000000000000e+00 0.000000000000000000e+00 0.000000000000000000e+00 7.996405339834868009e+00
7.985233573366919302e+00 0.000000000000000000e+00 0.000000000000000000e+00 0.000000000000000000e+00 7.985233573366919302e+00 0.000000000000000000e+00 0.000000000000000000e+00 0.000000000000000000e+00 7.985233573366919302e+00
7.976856211635536376e+00 0.000000000000000000e+00 0.000000000000000000e+00 0.000000000000000000e+00 7.976856211635536376e+00 0.000000000000000000e+00 0.000000000000000000e+00 0.000000000000000000e+00 7.976856211635536376e+00
7.972566967944715088e+00 0.000000000000000000e+00 0.000000000000000000e+00 0.000000000000000000e+00 7.972566967944715088e+00 0.000000000000000000e+00 0.000000000000000000e+00 0.000000000000000000e+00 7.972566967944715088e+00
7.971470426035740964e+00 0.000000000000000000e+00 0.000000000000000000e+00 0.000000000000000000e+00 7.971470426035740964e+00 0.000000000000000000e+00 0.000000000000000000e+00 0.000000000000000000e+00 7.971470426035740964e+00
7.972059838159906597e+00 0.000000000000000000e+00 0.000000000000000000e+00 0.000000000000000000e+00 7.972059838159906597e+00 0.000000000000000000e+00 0.000000000000000000e+00 0.000000000000000000e+00 7.972059838159906597e+00
7.974857861147643945e+00 0.000000000000000000e+00 0.000000000000000000e+00 0.000000000000000000e+00 7.974857861147643945e+00 0.000000000000000000e+00 0.000000000000000000e+00 0.000000000000000000e+00 7.974857861147643945e+00
7.980657057618723016e+00 0.000000000000000000e+00 0.000000000000000000e+00 0.000000000000000000e+00 7.980657057618723016e+00 0.000000000000000000e+00 0.000000000000000000e+00 0.000000000000000000e+00 7.980657057618723016e+00
7.988842983917065155e+00 0.000000000000000000e+00 0.000000000000000000e+00 0.000000000000000000e+00 7.988842983917065155e+00 0.000000000000000000e+00 0.000000000000000000e+00 0.000000000000000000e+00 7.988842983917065155e+00
7.996476687073171163e+00 0.000000000000000000e+00 0.000000000000000000e+00 0.000000000000000000e+00 7.996476687073171163e+00 0.000000000000000000e+00 0.000000000000000000e+00 0.000000000000000000e+00 7.996476687073171163e+00
8.001133991613324170e+00 0.000000000000000000e+00 0.000000000000000000e+00 0.000000000000000000e+00 8.001133991613324170e+00 0.000000000000000000e+00 0.000000000000000000e+00 0.000000000000000000e+00 8.001133991613324170e+00
8.002870709216255207e+00 0.000000000000000000e+00 0.000000000000000000e+00 0.000000000000000000e+00 8.002870709216255207e+00 0.000000000000000000e+00 0.000000000000000000e+00 0.000000000000000000e+00 8.002870709216255207e+00
8.001440949403383129e+00 0.000000000000000000e+00 0.000000000000000000e+00 0.000000000000000000e+00 8.001440949403383129e+00 0.000000000000000000e+00 0.000000000000000000e+00 0.000000000000000000e+00 8.001440949403383129e+00
7.995562760381008438e+00 0.000000000000000000e+00 0.000000000000000000e+00 0.000000000000000000e+00 7.995562760381008438e+00 0.000000000000000000e+00 0.000000000000000000e+00 0.000000000000000000e+00 7.995562760381008438e+00
7.985990819699981813e+00 0.000000000000000000e+00 0.000000000000000000e+00 0.000000000000000000e+00 7.985990819699981813e+00 0.000000000000000000e+00 0.000000000000000000e+00 0.000000000000000000e+00 7.985990819699981813e+00
7.975994102797094421e+00 0.000000000000000000e+00 0.000000000000000000e+00 0.000000000000000000e+00 7.975994102797094421e+00 0.000000000000000000e+00 0.000000000000000000e+00 0.000000000000000000e+00 7.975994102797094421e+00
7.968219817341222644e+00 0.000000000000000000e+00 0.000000000000000000e+00 0.000000000000000000e+00 7.968219817341222644e+00 0.000000000000000000e+00 0.000000000000000000e+00 0.000000000000000000e+00 7.968219817341222644e+00
7.963173584417859274e+00 0.000000000000000000e+00 0.000000000000000000e+00 0.000000000000000000e+00 7.963173584417859274e+00 0.000000000000000000e+00 0.000000000000000000e+00 0.000000000000000000e+00 7.963173584417859274e+00
7.959882298394492572e+00 0.000000000000000000e+00 0.000000000000000000e+00 0.000000000000000000e+00 7.959882298394492572e+00 0.000000000000000000e+00 0.000000000000000000e+00 0.000000000000000000e+00 7.959882298394492572e+00
7.958289339674043283e+00 0.000000000000000000e+00 0.000000000000000000e+00 0.000000000000000000e+00 7.958289339674043283e+00 0.000000000000000000e+00 0.000000000000000000e+00 0.000000000000000000e+00 7.958289339674043283e+00
7.961695694521037758e+00 0.000000000000000000e+00 0.000000000000000000e+00 0.000000000000000000e+00 7.961695694521037758e+00 0.000000000000000000e+00 0.000000000000000000e+00 0.000000000000000000e+00 7.961695694521037758e+00
7.973615612629400218e+00 0.000000000000000000e+00 0.000000000000000000e+00 0.000000000000000000e+00 7.973615612629400218e+00 0.000000000000000000e+00 0.000000000000000000e+00 0.000000000000000000e+00 7.973615612629400218e+00
7.992842324106659291e+00 0.000000000000000000e+00 0.000000000000000000e+00 0.000000000000000000e+00 7.992842324106659291e+00 0.000000000000000000e+00 0.000000000000000000e+00 0.000000000000000000e+00 7.992842324106659291e+00
8.013228140898757346e+00 0.000000000000000000e+00 0.000000000000000000e+00 0.000000000000000000e+00 8.013228140898757346e+00 0.000000000000000000e+00 0.000000000000000000e+00 0.000000000000000000e+00 8.013228140898757346e+00
8.029355575865386285e+00 0.000000000000000000e+00 0.000000000000000000e+00 0.000000000000000000e+00 8.029355575865386285e+00 0.000000000000000000e+00 0.000000000000000000e+00 0.000000000000000000e+00 8.029355575865386285e+00
8.038993645842753111e+00 0.000000000000000000e+00 0.000000000000000000e+00 0.000000000000000000e+00 8.038993645842753111e+00 0.000000000000000000e+00 0.000000000000000000e+00 0.000000000000000000e+00 8.038993645842753111e+00
8.042980480339332772e+00 0.000000000000000000e+00 0.000000000000000000e+00 0.000000000000000000e+00 8.042980480339332772e+00 0.000000000000000000e+00 0.000000000000000000e+00 0.000000000000000000e+00 8.042980480339332772e+00
8.041826767117454366e+00 0.000000000000000000e+00 0.000000000000000000e+00 0.000000000000000000e+00 8.041826767117454366e+00 0.000000000000000000e+00 0.000000000000000000e+00 0.000000000000000000e+00 8.041826767117454366e+00
8.034993372913529441e+00 0.000000000000000000e+00 0.000000000000000000e+00 0.000000000000000000e+00 8.034993372913529441e+00 0.000000000000000000e+00 0.000000000000000000e+00 0.000000000000000000e+00 8.034993372913529441e+00
8.021229675251518643e+00 0.000000000000000000e+00 0.000000000000000000e+00 0.000000000000000000e+00 8.021229675251518643e+00 0.000000000000000000e+00 0.000000000000000000e+00 0.000000000000000000e+00 8.021229675251518643e+00
8.001112129701168030e+00 0.000000000000000000e+00 0.000000000000000000e+00 0.000000000000000000e+00 8.001112129701168030e+00 0.000000000000000000e+00 0.000000000000000000e+00 0.000000000000000000e+00 8.001112129701168030e+00
7.978922910650994460e+00 0.000000000000000000e+00 0.000000000000000000e+00 0.000000000000000000e+00 7.978922910650994460e+00 0.000000000000000000e+00 0.000000000000000000e+00 0.000000000000000000e+00 7.978922910650994460e+00
7.960426929720430422e+00 0.000000000000000000e+00 0.000000000000000000e+00 0.000000000000000000e+00 7.960426929720430422e+00 0.000000000000000000e+00 0.000000000000000000e+00 0.000000000000000000e+00 7.960426929720430422e+00
7.948104459346280848e+00 0.000000000000000000e+00 0.000000000000000000e+00 0.000000000000000000e+00 7.948104459346280848e+00 0.000000000000000000e+00 0.000000000000000000e+00 0.000000000000000000e+00 7.948104459346280848e+00
7.941363516740175932e+00 0.000000000000000000e+00 0.000000000000000000e+00 0.000000000000000000e+00 7.941363516740175932e+00 0.000000000000000000e+00 0.000000000000000000e+00 0.000000000000000000e+00 7.941363516740175932e+00
7.939730421141766747e+00 0.000000000000000000e+00 0.000000000000000000e+00 0.000000000000000000e+00 7.939730421141766747e+00 0.000000000000000000e+00 0.000000000000000000e+00 0.000000000000000000e+00 7.939730421141766747e+00
7.944568818689493384e+00 0.000000000000000000e+00 0.000000000000000000e+00 0.000000000000000000e+00 7.944568818689493384e+00 0.000000000000000000e+00 0.000000000000000000e+00 0.000000000000000000e+00 7.944568818689493384e+00
7.956942303100991154e+00 0.000000000000000000e+00 0.000000000000000000e+00 0.000000000000000000e+00 7.956942303100991154e+00 0.000000000000000000e+00 0.000000000000000000e+00 0.000000000000000000e+00 7.956942303100991154e+00
7.974923928549339180e+00 0.000000000000000000e+00 0.000000000000000000e+00 0.000000000000000000e+00 7.974923928549339180e+00 0.000000000000000000e+00 0.000000000000000000e+00 0.000000000000000000e+00 7.974923928549339180e+00
7.993775040133664689e+00 0.000000000000000000e+00 0.000000000000000000e+00 0.000000000000000000e+00 7.993775040133664689e+00 0.000000000000000000e+00 0.000000000000000000e+00 0.000000000000000000e+00 7.993775040133664689e+00
8.009588708162430848e+00 0.000000000000000000e+00 0.000000000000000000e+00 0.000000000000000000e+00 8.009588708162430848e+00 0.000000000000000000e+00 0.000000000000000000e+00 0.000000000000000000e+00 8.009588708162430848e+00
8.021816640115769559e+00 0.000000000000000000e+00 0.000000000000000000e+00 0.000000000000000000e+00 8.021816640115769559e+00 0.000000000000000000e+00 0.000000000000000000e+00 0.000000000000000000e+00 8.021816640115769559e+00
8.030562548972685732e+00 0.000000000000000000e+00 0.000000000000000000e+00 0.000000000000000000e+00 8.030562548972685732e+00 0.000000000000000000e+00 0.000000000000000000e+00 0.000000000000000000e+00 8.030562548972685732e+00
8.033279388681737743e+00 0.000000000000000000e+00 0.000000000000000000e+00 0.000000000000000000e+00 8.033279388681737743e+00 0.000000000000000000e+00 0.000000000000000000e+00 0.000000000000000000e+00 8.033279388681737743e+00
8.028588121490084717e+00 0.000000000000000000e+00 0.000000000000000000e+00 0.000000000000000000e+00 8.028588121490084717e+00 0.000000000000000000e+00 0.000000000000000000e+00 0.000000000000000000e+00 8.028588121490084717e+00
8.018867195835660766e+00 0.000000000000000000e+00 0.000000000000000000e+00 0.000000000000000000e+00 8.018867195835660766e+00 0.000000000000000000e+00 0.000000000000000000e+00 0.000000000000000000e+00 8.018867195835660766e+00
8.008468331026657339e+00 0.000000000000000000e+00 0.000000000000000000e+00 0.000000000000000000e+00 8.008468331026657339e+00 0.000000000000000000e+00 0.000000000000000000e+00 0.000000000000000000e+00 8.008468331026657339e+00
7.999480910339957340e+00 0.000000000000000000e+00 0.000000000000000000e+00 0.000000000000000000e+00 7.999480910339957340e+00 0.000000000000000000e+00 0.000000000000000000e+00 0.000000000000000000e+00 7.999480910339957340e+00
7.990548838564652812e+00 0.000000000000000000e+00 0.000000000000000000e+00 0.000000000000000000e+00 7.990548838564652812e+00 0.000000000000000000e+00 0.000000000000000000e+00 0.000000000000000000e+00 7.990548838564652812e+00
7.981252430061578806e+00 0.000000000000000000e+00 0.000000000000000000e+00 0.000000000000000000e+00 7.981252430061578806e+00 0.000000000000000000e+00 0.000000000000000000e+00 0.000000000000000000e+00 7.981252430061578806e+00
7.974129429739713615e+00 0.000000000000000000e+00 0.000000000000000000e+00 0.000000000000000000e+00 7.974129429739713615e+00 0.000000000000000000e+00 0.000000000000000000e+00 0.000000000000000000e+00 7.974129429739713615e+00
7.971405486938548890e+00 0.000000000000000000e+00 0.000000000000000000e+00 0.000000000000000000e+00 7.971405486938548890e+00 0.000000000000000000e+00 0.000000000000000000e+00 0.000000000000000000e+00 7.971405486938548890e+00
7.974269921917999326e+00 0.000000000000000000e+00 0.000000000000000000e+00 0.000000000000000000e+00 7.974269921917999326e+00 0.000000000000000000e+00 0.000000000000000000e+00 0.000000000000000000e+00 7.974269921917999326e+00
7.981483004645322232e+00 0.000000000000000000e+00 0.000000000000000000e+00 0.000000000000000000e+00 7.981483004645322232e+00 0.000000000000000000e+00 0.000000000000000000e+00 0.000000000000000000e+00 7.981483004645322232e+00
7.989573613196343516e+00 0.000000000000000000e+00 0.000000000000000000e+00 0.000000000000000000e+00 7.989573613196343516e+00 0.000000000000000000e+00 0.000000000000000000e+00 0.000000000000000000e+00 7.989573613196343516e+00