7.943214667208000179e+00 7.888507482929999703e+00 7.904749338627000022e+00 7.941867907536000359e+00 7.887476991497000434e+00 3.921995712014000102e+00 7.935196459585999840e+00 3.905981414229000137e+00 7.901880173524999940e+00 7.946514966652999945e+00 3.898351447909000012e+00 3.919361603378999970e+00 3.958324042220000116e+00 7.893419305982000367e+00 7.900125058081999718e+00 3.956753419059999999e+00 7.888486477243000117e+00 3.919543374428999805e+00 3.952707955665999862e+00 3.903893031946000125e+00 7.903177476076000296e+00 3.959401877603999864e+00 3.907182818991000062e+00 3.914364668336999920e+00 2.132215415905999834e+00 2.016938478794000122e+00 1.900165534416000002e+00 2.121534517326999936e+00 2.010189879603000218e+00 5.890444973879000123e+00 6.104478551794000118e+00 2.023796190397999961e+00 1.899131684891000038e+00 6.108889913584000020e+00 5.991175826776999891e+00 1.894888340427000051e+00 6.103847617345000032e+00 5.993849652917999649e+00 5.878427783965999964e+00 2.121359761798999877e+00 6.002348354179999568e+00 1.899036091928000047e+00 2.118660056444999995e+00 5.995975695468000133e+00 5.877544199502000133e+00 6.104893610623999933e+00 2.009099061375000161e+00 5.896466676100000193e+00 1.992641831732999913e+00 2.013798703507000187e+00 1.681765408000000100e-03 7.962490723824999783e+00 1.991509535804000031e+00 2.000113056727999883e+00 1.994100540643999997e+00 1.309216834999999898e-03 1.983707401623999944e+00 2.001098455210999827e+00 2.006007950123999795e+00 3.970473616736999833e+00 7.693503937999999695e-03 1.983506048730000026e+00 5.975905944600000019e+00 2.001326902503000049e+00 9.203022611000000533e-03 5.972198352421999701e+00 1.988296493235000018e+00 5.980613410971000299e+00 7.958022608047000013e+00 1.277825074699999973e-02 5.982483735504000144e+00 1.993824538211999897e+00 1.994906215447999953e+00 3.994581028799999878e+00 1.991645445167000039e+00 1.998699432438999946e+00 5.973004603698999659e+00 3.996683099504000136e+00 2.420498674999999999e-03 5.983154735761000431e+00 5.976368092865000037e+00 1.975756274160999970e+00 4.005577580788999725e+00 5.967771988304000352e+00 5.983155509592999799e+00 1.977725528564999946e+00 1.275266957399999977e-02 3.974895968229000154e+00 1.989623635477000052e+00 1.977360150867000010e+00 5.966529521782000245e+00 7.962002805541000150e+00 2.007134735859999797e+00 5.953543722185999698e+00 1.992396776559000049e+00 3.997975691465999848e+00 3.996612483482000044e+00 1.982690340592000000e+00 5.991031498996999716e+00 5.967790281431000210e+00 7.958529319800000223e+00 5.967301908012999867e+00 5.980041617995000003e+00 5.961935014840999969e+00 7.962954187400000272e+00 3.987938159521000170e+00 5.973470075546999603e+00 1.995598710234999906e+00 5.967959965955000001e+00 3.990761985392000000e+00 1.985918350466000071e+00 5.975334772657999949e+00 5.970323203707000204e+00 3.978929051805999872e+00 3.991435536867999900e+00 5.983728029814000315e+00 5.978096702359000147e+00 5.977264279771000055e+00 3.994829431313000168e+00 5.990506183749999991e+00
7.945694402807999879e+00 7.886834065965000029e+00 7.910762776207000080e+00 7.936928861504999766e+00 7.881143006668000162e+00 3.941214824191999977e+00 7.898080686865999844e+00 3.908952519562999939e+00 7.893140676250999910e+00 7.965356925833000368e+00 3.862524287830999992e+00 3.925875386212000162e+00 3.967000326196000071e+00 7.916252118693000384e+00 7.883435455168999795e+00 3.958505304816000159e+00 7.887443728295999712e+00 3.926238890030000039e+00 3.932952003281999787e+00 3.896726622935999806e+00 7.901592251222999685e+00 3.973743564323000133e+00 3.915493182234000002e+00 3.895410139432000207e+00 2.176053920083000026e+00 2.027696425503000111e+00 1.903264769086999930e+00 2.110018141113000123e+00 1.986418713388000024e+00 5.917394180083999977e+00 6.095034455257000161e+00 2.063228257077000194e+00 1.907605485443000015e+00 6.119882684923999783e+00 5.953043250843999878e+00 1.870609551624000000e+00 6.088647725359000340e+00 5.962906682376000411e+00 5.847945771931000181e+00 2.115222585240999820e+00 6.014425794861000263e+00 1.894972294131999968e+00 2.099703839925000093e+00 5.978112075531999636e+00 5.849374355332000341e+00 6.071811838957000163e+00 1.976510075316999959e+00 5.971180320470000247e+00 2.002089239535000065e+00 2.120998897999999855e+00 1.954162000600000171e-02 7.948216953649000160e+00 1.992026404923000094e+00 2.037953111829000186e+00 2.007903243866000054e+00 7.962574888914000226e+00 1.943528978788999995e+00 2.056679831794999913e+00 2.076622418937000170e+00 3.903260119253999960e+00 1.445310992799999916e-01 1.945885645571999945e+00 5.976729598843999902e+00 2.053769340720999814e+00 3.610365679699999858e-02 5.951964021713999742e+00 1.974565384401999912e+00 6.001519239583999799e+00 7.912066647210999726e+00 8.364771400800000145e-02 6.010703579750000358e+00 2.002500684679000109e+00 2.012951216408000121e+00 4.053018906769000118e+00 1.989073046309999926e+00 2.030443729017000098e+00 5.959908938411000001e+00 3.999785733897000206e+00 4.561554170300000099e-02 6.021858143719000189e+00 5.974362635798000198e+00 1.909890843147000083e+00 4.104344100462999911e+00 5.926975036644000383e+00 6.012250063456000326e+00 1.909744177155999978e+00 1.122238479120000049e-01 3.921298238123000157e+00 1.981025410865999925e+00 1.901041828446000004e+00 5.916296024672000442e+00 7.900552693116000391e+00 2.074316004827999826e+00 5.833186681698999898e+00 2.003447114546999863e+00 3.967124550654999915e+00 3.985812583612000193e+00 1.945200920158999924e+00 6.068575175037000058e+00 5.922794653650999663e+00 7.840868289578000194e+00 5.928897502086000415e+00 5.996903899090000323e+00 5.900389660841000250e+00 7.960993049340999939e+00 4.005957407750999621e+00 5.958206244988000222e+00 2.010729996614000203e+00 5.923147887772000075e+00 4.031484314385999745e+00 1.952593033851000026e+00 5.968522386047999895e+00 5.938196783899000408e+00 3.937545983092999968e+00 4.014806435220999781e+00 6.016469138326000277e+00 5.986628532711000261e+00 5.978596946156000236e+00 4.103872825095000287e+00 6.064013821370999757e+00
7.945227481115000323e+00 7.889538625762999580e+00 7.914240187775999580e+00 7.927275190086000123e+00 7.880229749019999730e+00 3.961251079218000015e+00 7.859773595769000032e+00 3.909266358022000176e+00 7.881278875750999724e+00 1.720148534599999848e-02 3.822597364907000195e+00 3.934095003424999959e+00 3.982544514640999900e+00 7.943209825461000406e+00 7.864212004057000271e+00 3.969784562282999918e+00 7.892544892567999959e+00 3.934004097953999857e+00 3.919167997689999794e+00 3.887601239714999934e+00 7.897362185562999848e+00 3.995392221023999824e+00 3.919482103228999925e+00 3.878117865761999905e+00 2.181179717112999850e+00 2.036072538953999977e+00 1.912589494846000049e+00 2.080884820043999994e+00 1.958778402505999994e+00 5.937191214658000149e+00 6.083995054528999802e+00 2.084688303011999810e+00 1.952292110187000107e+00 6.119030119012999869e+00 5.932069044837000149e+00 1.851735197853999981e+00 6.067113152142000310e+00 5.931922829122999730e+00 5.812762926498000304e+00 2.102426319004000010e+00 6.020325627416999836e+00 1.887195185339000103e+00 2.074784221057000000e+00 5.963650053083999758e+00 5.836029486971000324e+00 6.014251703464999821e+00 1.937817131115000091e+00 6.041886703568000172e+00 2.010006588445000020e+00 2.223625966330999848e+00 2.418495638699999853e-02 7.948182452331000292e+00 2.006113474996999990e+00 2.077816200342000208e+00 2.027611736459999925e+00 8.795602446000000407e-03 1.911127641440999891e+00 2.125694232439999887e+00 2.149097784472000061e+00 3.875204244119000219e+00 3.032645517179999861e-01 1.923895363498000055e+00 5.980421153211000096e+00 2.108883637047000104e+00 5.276286853199999710e-02 5.937163523741999960e+00 1.976255264758000063e+00 6.028514359132000067e+00 7.904360775183000065e+00 1.226026839850000022e-01 6.034090202291999994e+00 2.013260014771999895e+00 2.035240968295000119e+00 4.086864906830999900e+00 1.986187392184000089e+00 2.056871199869000133e+00 5.970892986054000318e+00 3.902959412922000215e+00 1.003874632859999977e-01 6.078993107927000317e+00 5.968930974837999948e+00 1.879586493002000092e+00 4.113590523654999664e+00 5.899306941025000306e+00 6.041402108054000131e+00 1.848859038540000110e+00 1.724397843930000063e-01 3.935651733522000040e+00 1.985368809556999903e+00 1.826057733437999930e+00 5.883399025433000418e+00 7.832590364178999565e+00 2.120892760050999915e+00 5.721062340830999737e+00 2.038762556675000059e+00 3.853521971890999875e+00 3.908548305561999836e+00 1.940373681892999969e+00 6.160208403915000019e+00 5.893325835826000336e+00 7.734987265173000281e+00 5.915514473110000004e+00 6.029821242579999740e+00 5.881655988333999829e+00 3.795646323400000272e-02 4.016837296382999689e+00 5.947926312087999712e+00 2.016761247988000161e+00 5.888146093061999764e+00 4.037158591486000425e+00 1.921278922865000016e+00 5.977589463475999843e+00 5.896514325028999970e+00 3.903972473716999847e+00 4.005372206642999977e+00 6.033566143044000185e+00 5.997771839017000062e+00 5.989654027531999603e+00 4.173770036173999998e+00 6.143297146193999581e+00
7.947489905323999793e+00 7.900077787527999718e+00 7.921923745186999710e+00 7.919041741620000074e+00 7.887317957001999780e+00 3.982600320958999962e+00 7.826866310939999849e+00 3.910304661516000202e+00 7.873224363958000183e+00 3.454926404900000164e-02 3.782875202626000188e+00 3.944791334367999891e+00 4.006021347992000159e+00 1.021510101100000026e-02 7.848914860173000108e+00 3.991609829310999835e+00 7.907071959476000167e+00 3.943736420981000190e+00 3.912197933409999884e+00 3.879825266490999791e+00 7.896773414126999846e+00 4.024465637781999838e+00 3.923148291057999781e+00 3.863822501333999959e+00 2.156211865077999779e+00 2.042705298272000203e+00 1.925675397495000052e+00 2.061202886130999890e+00 1.936640490522999913e+00 5.951156708443000376e+00 6.074464712901000318e+00 2.090204388416000203e+00 2.023345057654999835e+00 6.107164247896999854e+00 5.940625954680999854e+00 1.847837483805000014e+00 6.045450575560000317e+00 5.911233269003999702e+00 5.770854196518000023e+00 2.093113191831999842e+00 6.024687277627999826e+00 1.875494011803999994e+00 2.051242767186999938e+00 5.957442572633000033e+00 5.834582419200000203e+00 5.945614809255999944e+00 1.898172451258000049e+00 6.093962421499999671e+00 1.994535386921999942e+00 2.310394474793000086e+00 1.589020885700000163e-02 7.964517651716000124e+00 2.035191174217000132e+00 2.130824728728999862e+00 2.048708023190000116e+00 7.138774947699999540e-02 1.889027224474000066e+00 2.197487793455000116e+00 2.212982772870999870e+00 3.896425712076000192e+00 2.708661393139999984e-01 1.914152572502999972e+00 5.981635638639000163e+00 2.155215976896000196e+00 4.188602130800000295e-02 5.924921630487999913e+00 1.991369876030000041e+00 6.059871942351000129e+00 7.901017771357000008e+00 9.323482964500000303e-02 6.051376710027000172e+00 2.026628069786999831e+00 2.053222787746999956e+00 4.065219786434999705e+00 1.981737167479000084e+00 2.072651713542999818e+00 6.016561089307000287e+00 3.841036494772000154e+00 1.126288847250000030e-01 6.153217167473999716e+00 5.955565850731000310e+00 1.885378691165999987e+00 4.046004377070000047e+00 5.882025626981000066e+00 6.085843810704999690e+00 1.788781453698000012e+00 1.264310348480000012e-01 4.005794259984000405e+00 2.004941387412999987e+00 1.758718806664999912e+00 5.885665561018999625e+00 7.801832242964000130e+00 2.150853742750999942e+00 5.635707887665000193e+00 2.086110257407999935e+00 3.788423517227000215e+00 3.892805216838000071e+00 1.974392532481000107e+00 6.263209476423999611e+00 5.892375573672000044e+00 7.767956879715000262e+00 5.929804038284999912e+00 6.091895569185999726e+00 5.923001201118999859e+00 6.815859276400000610e-02 4.017765874229000111e+00 5.947622302182000276e+00 2.008450984881999801e+00 5.879289720276999809e+00 3.978580390009999856e+00 1.898299030146999966e+00 6.016973179163000118e+00 5.838441008279000144e+00 3.931849483805999856e+00 3.974671591983999885e+00 6.020079186600000298e+00 6.006855445572999663e+00 6.022169463851000160e+00 4.091310907892999893e+00 6.223533802503999901e+00
7.949775556658999598e+00 7.917629229541000235e+00 7.932581355536999723e+00 7.911773134966000320e+00 7.900067910551999972e+00 4.004085371420000428e+00 7.797554028980999696e+00 3.910131584208000000e+00 7.868130013613000351e+00 5.212903375599999695e-02 3.743414495305999790e+00 3.957303922362000126e+00 4.036383521323999801e+00 4.401356685499999838e-02 7.837453271149000145e+00 4.021190213230999788e+00 7.928801964934000246e+00 3.953763316719999921e+00 3.910904775249000043e+00 3.872011706489999927e+00 7.899087891748999724e+00 4.057654118223999795e+00 3.926391195788000221e+00 3.851298874587000043e+00 2.128219409773000059e+00 2.047890124838000148e+00 1.931879729370000076e+00 2.050966453992999927e+00 1.927822235188999977e+00 5.962322390663000071e+00 6.062974080673000365e+00 2.078265785728000026e+00 2.069423442924999801e+00 6.084456690576000248e+00 5.970581045051000402e+00 1.856797531126000100e+00 6.019815983823000316e+00 5.896267522982999942e+00 5.744068851267999598e+00 2.087092276822999803e+00 6.026043208123000205e+00 1.859764053077000101e+00 2.030584370899000124e+00 5.949444725223999697e+00 5.840170760974999986e+00 5.884048546629999876e+00 1.870500351440999909e+00 6.124242878709000415e+00 1.942903662538999932e+00 2.356421658762000160e+00 1.100510658299999958e-02 2.803241480400000055e-02 2.067412121798000157e+00 2.204780153934000175e+00 2.064518101822999885e+00 1.410696344559999871e-01 1.879624030780999933e+00 2.263005646688999839e+00 2.244324475225000004e+00 3.954891907502999793e+00 8.111144877600000302e-02 1.904736770495000009e+00 5.961490935273999980e+00 2.184500789153999811e+00 6.856390323000000411e-03 5.907488506974000408e+00 2.009541936344000135e+00 6.085811721524000184e+00 7.885420861849000040e+00 3.550191165700000012e-02 6.059895938411999694e+00 2.044089276078000061e+00 2.060525558713000027e+00 4.039125060758999908e+00 1.980865126622000094e+00 2.072138722537999911e+00 6.089653177259999772e+00 3.888533703844999856e+00 6.887259008200000143e-02 6.221968160361999622e+00 5.927007713751000217e+00 1.917077169866000075e+00 4.002355182201999817e+00 5.864828372635000342e+00 6.160556737367000046e+00 1.725705006452999957e+00 6.907853879000000474e-02 4.035240403703999945e+00 2.033494500105999858e+00 1.705396754444000074e+00 5.921780003631000433e+00 7.814417660438000013e+00 2.184430222276999789e+00 5.578868363963000121e+00 2.119925333018000124e+00 3.846044663525999940e+00 3.934457579167999874e+00 2.032838058585999974e+00 6.354915502137999717e+00 5.912226402255000401e+00 7.864659257924000002e+00 5.938963030903999574e+00 6.173209778919000357e+00 6.013071307059999704e+00 5.279998325400000331e-02 4.004492181916999627e+00 5.957570524662999745e+00 1.990020869235000101e+00 5.903824288536999809e+00 3.915256935267999783e+00 1.883154625228000034e+00 6.075354207102000359e+00 5.766660224374000165e+00 4.011147085063999640e+00 3.962293793145000187e+00 5.972656343447000360e+00 6.000490674298999849e+00 6.072492716910000254e+00 3.961123677151999978e+00 6.270360409512999667e+00
7.946511293004999921e+00 7.938547659023999614e+00 7.940557354915999788e+00 7.901830179184999636e+00 7.914445022983000122e+00 4.024946132052000358e+00 7.766975803828000124e+00 3.905684217580999817e+00 7.861422966982999583e+00 6.951334045800000583e-02 3.702590697031999944e+00 3.971038895998999951e+00 4.071191812701999702e+00 7.983839209699999939e-02 7.825759266343999876e+00 4.054459832040000045e+00 7.953333395409999618e+00 3.962636167322000080e+00 3.913085178100999872e+00 3.862137810465000154e+00 7.899883809649000277e+00 4.090857946199999873e+00 3.927060628296000111e+00 3.839149051830999859e+00 2.103399760433000143e+00 2.050413112334000143e+00 1.925361043931999916e+00 2.027171811870000173e+00 1.930534358157000030e+00 5.973015003439000381e+00 6.046568459354999980e+00 2.047249989533999948e+00 2.076425657663000024e+00 6.057547764379999755e+00 6.009944208563999801e+00 1.862424378245000067e+00 5.989586616449000367e+00 5.885202180147000028e+00 5.768854886493000045e+00 2.077032977172000194e+00 6.020791746047000181e+00 1.843681789968000029e+00 2.009601448495000220e+00 5.933121080749000242e+00 5.848382781107000383e+00 5.859732084318999945e+00 1.870837877143999961e+00 6.116375938422000225e+00 1.860711695323999937e+00 2.343681921755000008e+00 9.468928169999999908e-03 5.747937066199999834e-02 2.086665950735000052e+00 2.291746491256000162e+00 2.072195083445000030e+00 1.573651412369999891e-01 1.884870984791999993e+00 2.315289933657000088e+00 2.223537951156000059e+00 4.031278663782000393e+00 7.924567098625000305e+00 1.891038771620999981e+00 5.899880658270999945e+00 2.198045367174000120e+00 5.893813870999999906e-03 5.890533807089999740e+00 2.021962636325000062e+00 6.096603845767000429e+00 7.897143598855000057e+00 1.205405982599999995e-02 6.054752214761999873e+00 2.064657919205000081e+00 2.056634324858999996e+00 4.077137762099999563e+00 1.992613239623000077e+00 2.055959412675000042e+00 6.170627158187000028e+00 3.961551925684999809e+00 1.313813062499999927e-02 6.257595418278000032e+00 5.888551621378000256e+00 1.954345852217000079e+00 4.017579299533999837e+00 5.852543279207999660e+00 6.255882776300000003e+00 1.660551504817000090e+00 1.111118008229999982e-01 4.004730041834999810e+00 2.060515616490000035e+00 1.672465986840999896e+00 5.971772461025000034e+00 7.854073399976999603e+00 2.235404890888000207e+00 5.555927713013000258e+00 2.123238093260999992e+00 3.966020040855999795e+00 3.925637954624999981e+00 2.088703483408000050e+00 6.414248105909999609e+00 5.919854601042000120e+00 7.893303615686000363e+00 5.905926501760999869e+00 6.244168238411999639e+00 6.121318744225000330e+00 3.688072895499999726e-02 3.982424107014999937e+00 5.977506312141000144e+00 1.970270637817999937e+00 5.955032114397000420e+00 3.906045373002000165e+00 1.871448378975000049e+00 6.125975932263999724e+00 5.689654509994999998e+00 4.036380578474999758e+00 3.990576433108000032e+00 5.900940709550000385e+00 5.973028353614999730e+00 6.115863316117000181e+00 3.913410768107000060e+00 6.263645688517000210e+00
7.937231229844000424e+00 7.959613540582999747e+00 7.943091881853000302e+00 7.887935008441999685e+00 7.927899683207000336e+00 4.045127255039999703e+00 7.733620171179000025e+00 3.896736672109000210e+00 7.851779975260000377e+00 8.518065979500000218e-02 3.661317753434000011e+00 3.986038499138000013e+00 4.107513104107000323e+00 1.160980748610000030e-01 7.811530321668000099e+00 4.088453674525999837e+00 7.978056854701000233e+00 3.970507285073999970e+00 3.916986312693000016e+00 3.850793320824000165e+00 7.897227028197000287e+00 4.122463584771000278e+00 3.924726040229999935e+00 3.827234649436999980e+00 2.074877655767000117e+00 2.043369662388999863e+00 1.907043162174000051e+00 1.987404171342000092e+00 1.935156625287999921e+00 5.976745350668999812e+00 6.027925183475000281e+00 2.007990614046999855e+00 2.062557690558000090e+00 6.038824429344000322e+00 6.049729413448000415e+00 1.863964390245999914e+00 5.959333178910999784e+00 5.876839079426999568e+00 5.830849904915999637e+00 2.056495261619000203e+00 6.011843374255000150e+00 1.832776914559999915e+00 1.985950807644000005e+00 5.913822263640000187e+00 5.855075873045000101e+00 5.877675437293000016e+00 1.898714013800000044e+00 6.073140714433000298e+00 1.762527952122999952e+00 2.280216743346000108e+00 2.273568755300000091e-02 6.090527522499999957e-02 2.079451866616000011e+00 2.368248272785999919e+00 2.072267365372999937e+00 1.318295776110000039e-01 1.900928675067000029e+00 2.345895305061000080e+00 2.156460322671000185e+00 4.095848539149000267e+00 7.936266871836999748e+00 1.878369227194000013e+00 5.804863972597999577e+00 2.203185426984000106e+00 6.172149295200000246e-02 5.897397232683999846e+00 2.026784518696000070e+00 6.090874653878000089e+00 7.933478206048000025e+00 3.209281020399999684e-02 6.040594457903999626e+00 2.077129235675000185e+00 2.043437216090000064e+00 4.150341023552999609e+00 2.019910677827999823e+00 2.032975083369000124e+00 6.237970893514999560e+00 3.988249685677999867e+00 6.323535768000000321e-03 6.245675829908000409e+00 5.862991858552000224e+00 1.975941163042999937e+00 4.060609879254999832e+00 5.861091687674999662e+00 6.333864749510000003e+00 1.612198660607000011e+00 2.420732893310000022e-01 3.958644643770000027e+00 2.082066294119000016e+00 1.667386180704000020e+00 6.013941142122999572e+00 7.909600254039999889e+00 2.297003856882999795e+00 5.569382516975999842e+00 2.097292204138999860e+00 4.039404813034000341e+00 3.855406458491000166e+00 2.119306869993999864e+00 6.445123281406999638e+00 5.886756658210999582e+00 7.832177567269000384e+00 5.836128501915999855e+00 6.275536602003000120e+00 6.218306043132000305e+00 5.088600442900000076e-02 3.986741864699999915e+00 6.010395086375000417e+00 1.954944398154000007e+00 6.014780180603000126e+00 3.931765748576999897e+00 1.857928535507000101e+00 6.143999631572000020e+00 5.622429279211000441e+00 3.994688656206000221e+00 4.038844803759999991e+00 5.823040153348999937e+00 5.936196274458000133e+00 6.129818121906000172e+00 3.976242922741000108e+00 6.228762219101000142e+00
7.927699961536999851e+00 7.980047605426999979e+00 7.942409900320999583e+00 7.872928118101000017e+00 7.940737851207000375e+00 4.064789368039999573e+00 7.700616506763999780e+00 3.885990845958999795e+00 7.842995265614000289e+00 9.778393714800000247e-02 3.623338339875000091e+00 4.002521558825000270e+00 4.142991300491000395e+00 1.509310450309999940e-01 7.796543701374999635e+00 4.121773010899000056e+00 1.598482918200000089e-02 3.978485399078000029e+00 3.922328530342999997e+00 3.840919692857999834e+00 7.893661397925000323e+00 4.153553790397999990e+00 3.921404026072000004e+00 3.816467426497000215e+00 2.035959459694999918e+00 2.016517591172999779e+00 1.882951448560999941e+00 1.939712340890999975e+00 1.930773902052999924e+00 5.964886462795999655e+00 6.014250986973999957e+00 1.977104929223999941e+00 2.054268717807000044e+00 6.031924346522999691e+00 6.080708190314999761e+00 1.880875422462999991e+00 5.935187650922999936e+00 5.871625863199000150e+00 5.881129836100000396e+00 2.025730069909999820e+00 6.010019631045000033e+00 1.834132957395999908e+00 1.960328496872000059e+00 5.905455823598999565e+00 5.856575488402000040e+00 5.922005218325000264e+00 1.938800644804999918e+00 6.007605445059000182e+00 1.661855862356000024e+00 2.193451649457000219e+00 6.844553692299999714e-02 4.041862782499999751e-02 2.039148403945000076e+00 2.412590828472000126e+00 2.064454785079000043e+00 1.199669553140000067e-01 1.917773410592999994e+00 2.350285674080000220e+00 2.075527911456000130e+00 4.121516108646000376e+00 5.969931399899999769e-02 1.876420329561999889e+00 5.716364173895000178e+00 2.205922336641000125e+00 1.261133557999999932e-01 5.951109147407000144e+00 2.027931046132999793e+00 6.075188064166000323e+00 7.934580435405999665e+00 6.896947903000000268e-02 6.036003128674000351e+00 2.065335241772999986e+00 2.026941177393999816e+00 4.158611755811000066e+00 2.060375227226999950e+00 2.018189135181000182e+00 6.277143847986000225e+00 3.985277896071000026e+00 6.462740037200000176e-02 6.190841981555999851e+00 5.875331671371999853e+00 1.970465281679000036e+00 4.077202925791000077e+00 5.899356864185000049e+00 6.363292070531000100e+00 1.602889447793000022e+00 3.437038536070000094e-01 3.938631737245999798e+00 2.099142077091999958e+00 1.687735665179999955e+00 6.039914288701999645e+00 7.968812641870999691e+00 2.352662918262999892e+00 5.609626336298999760e+00 2.061515907936999792e+00 4.029476116335000135e+00 3.811934285900000052e+00 2.121070771059000215e+00 6.463555174095000133e+00 5.820620605573999740e+00 7.767670153293000368e+00 5.769101527030000121e+00 6.257865638036999911e+00 6.286473372521999892e+00 7.065350623100000171e-02 4.045173073611000092e+00 6.056590745921000440e+00 1.945418536425000067e+00 6.065682173375999575e+00 3.953477996896999969e+00 1.830992775366999892e+00 6.118554828486000297e+00 5.587544812011000062e+00 3.963259181408000043e+00 4.067325433878999696e+00 5.758633004735999705e+00 5.911190682824999598e+00 6.115550129813000169e+00 4.070049381978999570e+00 6.208642563070999820e+00
7.924591283356000382e+00 9.137728000999999906e-03 7.943434842621999614e+00 7.861683649759999781e+00 7.955639166326999856e+00 4.084261710807999712e+00 7.673178234366999639e+00 3.877036025411999987e+00 7.841304829592999681e+00 1.074771246690000015e-01 3.592581914865999870e+00 4.019963087463000129e+00 4.177197113443000376e+00 1.833805957949999899e-01 7.784881884198999735e+00 4.154014852237000177e+00 3.934000120899999731e-02 3.987885960545999975e+00 3.930068928104999859e+00 3.835438705524000014e+00 7.893792533080000062e+00 4.185449114229999878e+00 3.919770149920000168e+00 3.808114847918000034e+00 1.990346594110999900e+00 1.970590588040000091e+00 1.865519928811999906e+00 1.912197826567999970e+00 1.919329908756000069e+00 5.937983407882000186e+00 6.007279270628999690e+00 1.967964096927000028e+00 2.073661348283000194e+00 6.027582609779000400e+00 6.096698719142000122e+00 1.923682888861000029e+00 5.915183557949999837e+00 5.880239041879000261e+00 5.899122075270000209e+00 1.992222761364000005e+00 6.019257486553000192e+00 1.848792958188000046e+00 1.940854723800000015e+00 5.914847421839000141e+00 5.854324433209000311e+00 5.973650216016999970e+00 1.979715535476999966e+00 5.932932302396999980e+00 1.569238773901999950e+00 2.109452058916999828e+00 1.258200298970000020e-01 1.259765784500000048e-02 1.972413893232999982e+00 2.426300877227999919e+00 2.048029979429999869e+00 1.215699707849999950e-01 1.925611757146000080e+00 2.330947277048000199e+00 2.012257927413000136e+00 4.104316941690999698e+00 1.290101452659999925e-01 1.887612573541999961e+00 5.670511094919000072e+00 2.206981143479000096e+00 1.230348715139999993e-01 6.053945563017999909e+00 2.032958793806999953e+00 6.056891999582999730e+00 7.908574066123000179e+00 1.036790306700000053e-01 6.058030586643999627e+00 2.025602790819000187e+00 2.017047522323000219e+00 4.095566514857999607e+00 2.105448980375999923e+00 2.022514636955000000e+00 6.285497388922999917e+00 3.974139187182999855e+00 1.203657072370000053e-01 6.120091221234000400e+00 5.929620479096000096e+00 1.939358052421999989e+00 4.042266840899999991e+00 5.962815592300000134e+00 6.352260239927000285e+00 1.629767253962000062e+00 2.960313240399999879e-01 3.956314520994999917e+00 2.109912253557999939e+00 1.723645746220999975e+00 6.056208608298000229e+00 1.203584488199999948e-02 2.389343135937000095e+00 5.669738310089000421e+00 2.041839847507000094e+00 3.971005051285000143e+00 3.857405584199999904e+00 2.108850412261999985e+00 6.481599392272999971e+00 5.763310642523999938e+00 7.786236014737999866e+00 5.735796434423000356e+00 6.206280179292000376e+00 6.321754950714000287e+00 6.965781055299999358e-02 4.129536684461999840e+00 6.107873478390000166e+00 1.942818800266999935e+00 6.103388397310999913e+00 3.964146787258000071e+00 1.785683661013999890e+00 6.069499460671999636e+00 5.599670693904999830e+00 3.968725429071000121e+00 4.060784231140999623e+00 5.721793391195999945e+00 5.910201692148000063e+00 6.097087264229999803e+00 4.075235497602999857e+00 6.228552629938000074e+00
7.927734547494999617e+00 2.393686516999999833e-02 7.947511908214000442e+00 7.855075597091000006e+00 7.972747725146000164e+00 4.102547318124000419e+00 7.652565031994999600e+00 3.870620231460999872e+00 7.848294770587999736e+00 1.155006951020000061e-01 3.570149809800000185e+00 4.035992903660999609e+00 4.210330331848999741e+00 2.131534180430000036e-01 7.777631808790999912e+00 4.183600871329000270e+00 6.235956087600000308e-02 3.997968892320999945e+00 3.940200598790999820e+00 3.834478016278000112e+00 7.898334674466999772e+00 4.216566774467000123e+00 3.920384423778000116e+00 3.801609860720000178e+00 1.948510580857000019e+00 1.920139967938000014e+00 1.866550733074000101e+00 1.936529339820999951e+00 1.905616077616000048e+00 5.903661212462999686e+00 6.006957877302999904e+00 1.979306308463000041e+00 2.093140761886000067e+00 6.014134094731000246e+00 6.096446175728999606e+00 1.975038064882999933e+00 5.891090481093000264e+00 5.901520478517999990e+00 5.893524079162999918e+00 1.963021571265999965e+00 6.030439737360000052e+00 1.868349946101999892e+00 1.937753293542000099e+00 5.932931332401000013e+00 5.854115775649000319e+00 6.014204530306000329e+00 2.013162451799999975e+00 5.876899976728999775e+00 1.497071362383000093e+00 2.041584885649000203e+00 1.432553781229999879e-01 7.991931798539999576e+00 1.895182377580000077e+00 2.426302854869000214e+00 2.028307688666000086e+00 8.581866081500000298e-02 1.924290796141000071e+00 2.291421296608000091e+00 1.972186758611000013e+00 4.078264611670999962e+00 7.255758844100000660e-02 1.897636617637000089e+00 5.670458269464999645e+00 2.199444861109999927e+00 4.157355556600000196e-02 6.176623342734999689e+00 2.049345982229000107e+00 6.035179054730999582e+00 7.924191055748999624e+00 1.239155272750000064e-01 6.105515721800999884e+00 1.974121494408999977e+00 2.016563649605000119e+00 4.045657235309000122e+00 2.145353443413999806e+00 2.044090395376000124e+00 6.265129888913000045e+00 3.956352457975000014e+00 8.439746889299999666e-02 6.061015253158999805e+00 6.002866022913999622e+00 1.895277072297999910e+00 3.988088717612999989e+00 6.031795015912999602e+00 6.313662064448999800e+00 1.685766552250000050e+00 1.328913145950000041e-01 3.998487727065000108e+00 2.107209918628000000e+00 1.767208599144000081e+00 6.074232139320000279e+00 8.000252881152000839e+00 2.398781976336000099e+00 5.741185307737000088e+00 2.058276059889999843e+00 3.919016798376000033e+00 3.957635301082000012e+00 2.092692661141999810e+00 6.480819758898999972e+00 5.750922910000999977e+00 7.875232558060000443e+00 5.739114116389999687e+00 6.142642990087000321e+00 6.324216743501000160e+00 5.333352076399999753e-02 4.190858457022000216e+00 6.148709308016999664e+00 1.955953930424999987e+00 6.129102800087999903e+00 3.969779904105999790e+00 1.743493176679999923e+00 6.025719691524000332e+00 5.656600147762000041e+00 4.007259045372999928e+00 4.040651598242999576e+00 5.715844577920999647e+00 5.927778456592999845e+00 6.082047881691999613e+00 3.995542279093999838e+00 6.265574489948999570e+00