-3.512131466830000136e+04
-3.512182021220000024e+04
-3.512130961519999983e+04
-3.512178354620000027e+04
-3.512192826749999949e+04
-3.512191104320000159e+04
-3.512222599579999951e+04
-3.512190683230000286e+04
-3.512195186259999900e+04
-3.512214945769999758e+04
-3.512169490000000224e+04
-3.512199637120000261e+04
-3.512208668719999696e+04
-3.512184619389999716e+04
-3.512231059880000248e+04
-3.512210974639999768e+04
-3.512202961910000158e+04
-3.512215688460000092e+04
-3.512200951570000325e+04
-3.512225978469999973e+04
-3.512197245580000163e+04
-3.512190963039999770e+04
-3.512256930280000233e+04
-3.512245090550000168e+04
-3.512241928039999766e+04
-3.512236442949999764e+04
-3.512233886679999705e+04
-3.512269786110000132e+04
-3.512246538020000298e+04
-3.512242584689999785e+04
-3.512228788910000003e+04
-3.512224948990000121e+04
-3.512243866880000132e+04
-3.512204947920000268e+04
-3.512204694339999696e+04
-3.512197566450000159e+04
-3.512208224699999846e+04
-3.512223580090000178e+04
-3.512213116849999642e+04
-3.512207748110000102e+04
-3.512212757060000149e+04
-3.512186001070000202e+04
-3.512172915780000039e+04
-3.512202918320000026e+04
-3.512173236119999638e+04
-3.512178357530000358e+04
-3.512173964020000130e+04
-3.512135321909999766e+04
-3.512160075689999940e+04
-3.512173918820000108e+04
-3.512148458899999969e+04
-3.512142091490000166e+04
-3.512160407809999742e+04
-3.512129437160000089e+04
-3.512175870690000011e+04
-3.512182946760000050e+04
-3.512175535859999945e+04
-3.512169359989999793e+04
-3.512180128659999900e+04
-3.512155489120000129e+04
-3.512170439679999981e+04
-3.512215652080000291e+04
-3.512198538630000257e+04
-3.512177685329999804e+04
-3.512165307359999861e+04
-3.512141899489999923e+04
-3.512184870599999704e+04
-3.512224601670000266e+04
-3.512206721069999912e+04
-3.512201809710000089e+04
-3.512208298310000100e+04
-3.512206086109999887e+04
-3.512201940389999800e+04
-3.512218654780000361e+04
-3.512222639070000150e+04
-3.512215913010000077e+04
-3.512227409510000143e+04
-3.512221305839999695e+04
-3.512222357970000303e+04
-3.512252745649999997e+04
-3.512219201210000028e+04
-3.512206951400000253e+04
-3.512228887799999939e+04
-3.512228167260000191e+04
-3.512262600299999758e+04
-3.512239934319999884e+04
-3.512231258890000026e+04
-3.512247320000000036e+04
-3.512232872710000083e+04
-3.512219471139999951e+04
-3.512230826240000169e+04
-3.512223343949999980e+04
-3.512205913970000256e+04
-3.512224603709999792e+04
-3.512221090079999703e+04
-3.512174117670000123e+04
-3.512182239180000033e+04
-3.512186083130000043e+04
-3.512181824200000119e+04
-3.512158700810000300e+04
-3.512192976659999840e+04
-3.512162539410000318e+04
-3.512180911740000010e+04
-3.512196641570000065e+04
-3.512214110619999701e+04
-3.512182778189999954e+04
-3.512190910789999907e+04
-3.512191078540000308e+04
-3.512185328699999809e+04
-3.512139653980000003e+04
-3.512139829330000066e+04
-3.512159587610000017e+04
-3.512184560110000166e+04
-3.512191128139999637e+04
-3.512184111049999774e+04
-3.512159597519999807e+04
-3.512164761839999846e+04
-3.512181727759999922e+04
-3.512204005009999673e+04
-3.512164088479999918e+04
-3.512183055459999741e+04
-3.512191905889999907e+04
-3.512202918900000077e+04
-3.512195294989999820e+04
-3.512170637130000250e+04
-3.512200178820000292e+04
-3.512229746899999736e+04
-3.512201895260000310e+04
-3.512209785530000227e+04
-3.512182076260000031e+04
-3.512162884409999970e+04
-3.512197732549999637e+04
-3.512227461410000251e+04
-3.512246701770000072e+04
-3.512213480910000362e+04
-3.512238628610000160e+04
-3.512240306070000224e+04
-3.512226461890000064e+04
-3.512217571450000105e+04
-3.512229449020000175e+04
-3.512220367589999660e+04
-3.512232214959999692e+04
-3.512221734000000288e+04
-3.512232345119999809e+04
-3.512240143720000196e+04
-3.512251983040000050e+04
-3.512183844610000233e+04
-3.512180342340000061e+04
-3.512219896639999934e+04
-3.512217655289999675e+04
-3.512219348660000105e+04
-3.512210770339999726e+04
-3.512180615720000060e+04
-3.512170922650000284e+04
-3.512191111169999931e+04
-3.512209944900000119e+04
-3.512178381020000234e+04
-3.512183868729999813e+04
-3.512203630669999984e+04
-3.512185767040000064e+04
-3.512182262810000248e+04
-3.512207862659999955e+04
-3.512222970150000037e+04
-3.512188441069999681e+04
-3.512155290270000114e+04
-3.512145983390000038e+04
-3.512185068019999744e+04
-3.512210935880000034e+04
-3.512194971500000247e+04
-3.512166752670000278e+04
-3.512138371400000324e+04
-3.512172676030000002e+04
-3.512185491909999837e+04
-3.512181912590000138e+04
-3.512195201600000291e+04
-3.512180214200000046e+04
-3.512211108249999961e+04
-3.512232821110000077e+04
-3.512205816819999745e+04
-3.512227996490000078e+04
-3.512188196720000269e+04
-3.512198522329999832e+04
-3.512220804569999746e+04
-3.512231478300000163e+04
-3.512205193919999874e+04
-3.512221195969999826e+04
-3.512213497800000187e+04
-3.512194822019999992e+04
-3.512194183809999959e+04
-3.512233302440000261e+04
-3.512261459640000248e+04
-3.512222139310000057e+04
-3.512195132569999987e+04
-3.512228025660000276e+04
-3.512225199710000015e+04
-3.512267225480000343e+04
-3.512252677979999862e+04
-3.512233216659999744e+04
-3.512210484719999658e+04
-3.512195248010000068e+04
-3.512209509940000135e+04
-3.512246866579999914e+04
-3.512234946700000000e+04
-3.512237744769999699e+04
-3.512214697950000118e+04
-3.512218328080000356e+04
-3.512181363019999844e+04
-3.512213650329999655e+04
-3.512201227400000062e+04
-3.512218340860000171e+04
-3.512177198230000067e+04
-3.512185031020000315e+04
-3.512175431029999891e+04
-3.512229088000000047e+04
-3.512199276510000345e+04
-3.512190820350000286e+04
-3.512160068409999803e+04
-3.512225043980000191e+04
-3.512214955170000030e+04
-3.512209556139999768e+04
-3.512192520040000090e+04
-3.512160834199999954e+04
-3.512144340080000256e+04
-3.512164355929999874e+04
-3.512189674489999743e+04
-3.512198608229999809e+04
-3.512187377739999647e+04
-3.512186484880000353e+04
-3.512202145500000188e+04
-3.512235394639999868e+04
-3.512196705430000293e+04
-3.512206205020000198e+04
-3.512200485720000142e+04
-3.512206929680000030e+04
-3.512206269449999672e+04
-3.512244607489999908e+04
-3.512223451850000129e+04
-3.512246300099999644e+04
-3.512225103159999708e+04
-3.512215471100000286e+04
-3.512228155500000139e+04
-3.512243556540000282e+04
-3.512228904100000364e+04
-3.512220073029999912e+04
-3.512224760170000081e+04
-3.512209538639999664e+04
-3.512195525449999695e+04
-3.512221524990000034e+04
-3.512231203039999673e+04
-3.512196612399999867e+04
-3.512209517380000034e+04
-3.512263063240000338e+04
-3.512237141290000000e+04
-3.512220726149999973e+04
-3.512215120770000067e+04
-3.512252764259999822e+04
-3.512227765170000202e+04
-3.512231708280000021e+04
-3.512207376300000033e+04
-3.512201233189999766e+04
-3.512181384860000253e+04
-3.512159835649999877e+04
-3.512145508010000049e+04
-3.512184618710000359e+04
-3.512180159190000268e+04
-3.512176977759999863e+04
-3.512183879599999636e+04
-3.512176015059999918e+04
-3.512174026620000222e+04
-3.512195467610000196e+04
-3.512232299600000260e+04
-3.512214934440000070e+04
-3.512187291189999814e+04
-3.512182703849999962e+04
-3.512162895500000013e+04
-3.512197847950000141e+04
-3.512231393589999789e+04
-3.512200147819999984e+04
-3.512197548310000275e+04
-3.512195701310000004e+04
-3.512201616520000243e+04
-3.512198677709999902e+04
-3.512219324719999713e+04
-3.512205975200000103e+04
-3.512205090690000361e+04
-3.512211709120000160e+04
-3.512193316990000312e+04
-3.512236881179999909e+04
-3.512221401530000003e+04
-3.512189405080000142e+04
-3.512185862649999763e+04
-3.512227159180000308e+04
-3.512236188080000284e+04
-3.512250434600000153e+04
