-9.513229220269999731e-01 1.371483645060999956e+00 -8.871136472320000355e-01 -1.127480230880999912e+00 1.502858399181000060e+00 4.816583629839999992e-01 -8.555627774520000450e-01 -1.092005441264999988e+00 -1.031752355300000090e+00 -1.036369671097000067e+00 -1.263691816156000014e+00 6.311797272770000022e-01 1.726599898933999899e+00 1.382396178327000014e+00 -6.750593138799999560e-01 1.938598939808999999e+00 1.579842181937000101e+00 3.240261085880000169e-01 1.633301335172000046e+00 -1.013990897271999980e+00 -7.460766154029999653e-01 1.814640762530000062e+00 -1.257348575189999984e+00 4.011184669810000103e-01 -6.495314213080000121e-01 -1.247565269739999982e-01 7.552692542999999738e-03 -1.235760311908999931e+00 -1.575148598560000002e-01 -1.370715086679999972e-01 -3.669219856789999734e-01 -3.574879517510000104e-01 7.183417154919999881e-01 -3.446054511800000220e-01 -1.014110322960000005e-01 -1.609374114100000155e-02 -5.262993551810000170e-01 -4.244779021849999778e-01 2.727151765800000030e-02 -1.439839575541999928e+00 -5.506341277420000457e-01 2.163255690089999905e-01 -1.419839941151999962e+00 -4.531851732030000024e-01 7.027996290519999967e-01 -1.488311286362999919e+00 -2.923573364470000158e-01 8.580964787829999940e-01 2.930442761309999811e-01 3.220932416499999729e-02 4.890533646360000208e-01 6.968824077990000143e-01 8.699171072200000132e-02 -5.566893790199999720e-02 1.508667624430000131e-01 -4.882493258460000041e-01 6.836269043499999809e-02 3.442997357750000043e-01 6.511697672199999454e-02 -1.790934864529999948e-01 3.291618031714000026e+00 1.501797120979999900e-01 2.401359400580000136e-01 2.628663508310000174e-01 -7.432380348989999774e-01 1.100754308139999943e-01 1.380285196269999959e-01 6.270918293699999368e-02 -3.389717298000000101e-02 4.286827922629999899e-01 6.903180568899999758e-02 3.031244451999999881e-02 1.610129711649999906e-01 4.204430197940000058e-01 2.884439025099999956e-02 4.377666904500000095e-02 1.130762673039999999e-01 -1.095715241683999919e+00 1.024234070332999957e+00 1.698829457599999870e-01 7.315369948300000369e-02 3.858578876170000171e-01 4.604375009069999747e-01 1.186434410170000009e-01 -5.649965597800000322e-02 1.186041294269999935e-01 1.442902584844999891e+00 -6.182402724759999968e-01 9.299146721199999521e-02 -6.841313001899999857e-02 -9.008787589000000554e-03 -8.450854533080000008e-01 -1.053749108060000050e-01 -1.399142290610000117e-01 2.135234716390000120e-01 -2.937553646656999806e+00 -1.892239908189000008e+00 1.808329540599999952e-01 1.879062858620000054e-01 -5.233657308700000177e-02 -2.242949034555000054e+00 2.342708454699999887e-01 -2.631368132099999937e-02 2.589966518999999856e-01 7.367136466629999880e-01 1.402841418430000042e-01 7.167048006399999449e-02 7.885808080999999470e-03 -2.255175939199999952e-02 5.631868857139999962e-01 -4.860783187300000280e-02 -2.509015335499999860e-02 1.260047849410000087e-01 -4.268728585029999967e-01 -1.259216594729999916e-01 4.593800567200000129e-02 1.008009106920000064e-01 -6.463394333800000224e-02 2.269975807714000204e+00 2.069326473089999896e-01
-7.050754648710000350e-01 8.501916475880000323e-01 -6.359154163479999733e-01 -1.115478393617000075e+00 1.099534398062000040e+00 1.600478172170000102e-01 -3.402424982939999953e-01 -5.842229759420000113e-01 -7.726988827259999582e-01 -6.473352887329999472e-01 -9.476767407849999714e-01 3.435847524849999779e-01 1.448117592233000073e+00 7.954577009809999932e-01 -6.594225137129999803e-01 2.050020213414000203e+00 1.246915494430999916e+00 2.181571384659999890e-01 1.235024621326999972e+00 -4.262611617329999936e-01 -6.678840429650000354e-01 1.563134037870000048e+00 -9.683401398830000506e-01 3.267883680159999749e-01 -2.098375504024999838e+00 -1.171446245649999940e-01 3.495769930120000146e-01 -1.010868374941999992e+00 -2.572634960369999946e-01 -3.676434791320000173e-01 -5.639724093799999838e-02 -9.601440322140000205e-01 1.920707872244000081e+00 -6.114164994040000023e-01 8.725127919940000032e-01 2.399769600109999956e-01 -3.296811422939999736e-01 -3.586557439199999919e-02 -2.195939162899999963e-01 -6.743840386170000256e-01 -6.397455105179999935e-01 -4.180114668530000022e-01 -5.675767704009999637e-01 3.489899548720000189e-01 1.571674923595999918e+00 -5.292573706369999575e-01 -1.506990413119999872e-01 -1.673043309289999891e-01 -1.729688319000000085e-02 -6.937717188200000218e-02 -2.992673966659999962e-01 1.832294422300000114e-01 2.346353045029999917e-01 2.236354569800000011e-02 1.001305085969999981e-01 3.008307182009999914e-01 1.344662831110000067e-01 2.260943294570000039e-01 4.626839685999999813e-02 7.159313699489999738e-01 4.630802210050000145e-01 2.773464335849999962e-01 3.431223001599999906e-02 3.960764054000000256e-02 -5.739594229799999808e-02 9.295913187000000300e-02 2.712215885650000047e-01 1.105002305039999994e-01 7.830458361480000518e-01 -5.395399973569999785e-01 -8.979932479499999620e-02 3.652481928500000280e-02 7.974023422600000355e-02 -4.175047115850000212e-01 -3.580870587000000143e-03 -8.998493414699999804e-02 4.116293304249999951e-01 -1.998563609177000044e+00 2.002255480310000113e-01 3.177243831459999890e-01 -6.263525453000000354e-02 6.052645033219999915e-01 -1.687672937993000000e+00 2.345812649500000069e-01 -1.443455470099999985e-02 1.308768990960000045e-01 -6.984524002980000423e-01 1.337005684890000046e+00 2.205377017529999983e-01 1.478696521499999958e-02 2.893048092659999959e-01 -1.027961522290000013e-01 -3.683805703429999800e-01 1.358233495860000084e-01 4.429331854329999762e-01 -1.427824055320999985e+00 -1.279399443905999911e+00 5.664037685639999875e-01 2.513763858379999827e-01 2.690306427379999810e-01 1.675774571339999908e-01 4.188589988020000043e-01 2.745555286620000035e-01 7.222948361990000343e-01 8.098517969340000011e-01 -1.395618969909999951e-01 7.579178680900000575e-02 -1.544540883449999902e-01 1.553725843629999992e-01 -6.253954751570000026e-01 2.789366822899999945e-02 2.662257223010000007e-01 -1.736798173609999940e-01 8.524141574099999841e-02 -5.945360441260000295e-01 -2.606828674269999757e-01 4.453551985100000221e-02 1.686335385690000133e-01 -6.672847220330000440e-01 8.438823754099999963e-02
-5.297746068030000366e-01 4.861837631640000268e-01 -2.160483987800000116e-01 -8.568314087260000544e-01 5.358843406550000132e-01 -3.068487716050000147e-01 1.964748648299999984e-02 -3.665756863349999839e-01 -3.124615053800000042e-01 -1.660003959149999875e-01 -5.291086068750000537e-01 -7.255031551799999423e-02 1.114020652285000024e+00 4.923972214999999819e-01 -3.208281028850000216e-01 1.708754799597000051e+00 8.611337533170000391e-01 -1.562672492499999899e-01 8.516870200389999868e-01 -2.546916736320000152e-01 -3.606386892680000233e-01 1.038553819032999925e+00 -6.193867214379999986e-01 4.787650382699999707e-02 -1.660800873874999972e+00 -1.625397712920000071e-01 1.603590576009999991e-01 5.344131102329999772e-01 2.081304381630000033e-01 -5.190050712260000365e-01 -1.297011993090000093e-01 -8.351646826619999464e-01 1.513643864127000027e+00 -7.672375563219999695e-01 1.346271301824000011e+00 7.173827961700000033e-01 -1.732541361790000123e-01 3.858465402869999950e-01 -6.871158662540000073e-01 2.820006579609999897e-01 -5.234748242719999833e-01 -4.970634659939999755e-01 1.642296938700000056e-02 5.118640237289999728e-01 6.890416675589999818e-01 -4.289216149180000159e-01 -8.687767359799999922e-02 -6.101412564189999665e-01 -4.265861416380000160e-01 -2.657406632350000075e-01 -2.366619439310000128e-01 1.629948732510000109e-01 2.464633391930000084e-01 1.997919093440000127e-01 3.716542696000000017e-03 9.663058007839999686e-01 1.411595587109999994e-01 1.364669872700000064e-02 -1.467270887799999868e-01 7.944835195410000495e-01 -3.589106657807000111e+00 1.899307060000000047e-01 -9.169964398100000080e-02 -1.691634934419999903e-01 -4.958678991239999778e-01 -2.153878142500000037e-02 2.108936277990000052e-01 9.125576624999999498e-03 -7.009670169800000239e-02 -1.271856673679000016e+00 -1.732942314479999912e-01 1.556571149000000008e-02 -1.001004657300000045e-01 -1.120269842911999936e+00 -6.310146185999999935e-02 -1.972218858439999944e-01 5.249562715200000174e-01 6.516713693329999613e-01 -7.531444596159999616e-01 2.572524305209999973e-01 -2.005954555630000136e-01 5.889810214730000215e-01 -1.481705872935999979e+00 1.087729788999999975e-01 1.712716481379999989e-01 -1.623076442999999910e-02 -2.045575845085000122e+00 1.020003050608000006e+00 2.407806696129999868e-01 9.617530533300000517e-02 5.366953528450000288e-01 5.773765841179999692e-01 -3.286824325709999939e-01 3.971967293529999887e-01 1.965426393220000012e-01 8.085098399619999876e-01 1.216253889220999973e+00 6.503918957490000263e-01 1.587354175179999938e-01 4.187719325090000222e-01 2.589190954421999979e+00 4.463880864940000248e-01 4.428066382149999924e-01 9.657408520539999541e-01 -2.445164741059999980e-01 -2.068732671600000128e-01 9.801371933199999609e-02 -2.796921761369999815e-01 3.687237471929999955e-01 -1.283028967237000106e+00 1.231951403120000038e-01 4.663251505959999932e-01 -3.696714269010000220e-01 1.042966073194000032e+00 -4.542657940729999955e-01 -6.013322596019999855e-01 -9.167605633799999487e-02 2.970592133930000101e-01 -3.008094165179000079e+00 1.708686585599999974e-02
-8.125977141660000180e-01 7.095069951669999986e-01 -1.345525461909999887e-01 -6.162205487540000082e-01 3.884440410610000005e-01 -3.969111601079999829e-01 -7.771518997100000659e-02 -6.739187581140000383e-01 -1.689646126959999939e-01 9.801577575299999512e-02 -3.773547465459999861e-01 -3.370597063599999749e-02 1.095297605597999935e+00 5.836693402310000334e-01 1.935686656699999939e-02 1.279793509561000020e+00 7.377708802419999934e-01 -3.680363231900000143e-01 8.027060132229999478e-01 -4.379753815779999782e-01 -1.746449370529999934e-01 4.960680943870000026e-01 -4.773438271720000237e-01 -6.358108132999999718e-02 -9.579270497300000631e-02 -1.175051070809999959e-01 -4.181053038599999994e-01 5.079991223330000416e-01 6.468484283250000022e-01 -2.895853707359999918e-01 -2.575850623820000185e-01 -9.093396987120000441e-01 -1.519164122769999903e+00 -7.304593359800000130e-01 9.190901790859999920e-01 6.807712527920000145e-01 -3.924395784470000037e-01 8.750966693400000218e-02 4.883096525789999975e-01 2.635853178249999984e-01 -5.639536363749999559e-01 -5.408406305899999822e-01 2.094387846309999912e-01 -5.203821722629999869e-01 3.976509493559999830e-01 4.886638453699999884e-02 2.591154277789999849e-01 -5.595249550849999975e-01 -6.472825074689999569e-01 -7.047807701560000471e-01 9.678588986000000172e-02 3.540827323319999942e-01 4.384450866700000116e-02 3.517802616110000113e-01 -1.121826960900000059e-01 1.474848302669999889e-01 1.912044122140000024e-01 -1.170300655170000009e-01 -5.620638574570000490e-01 5.914700920619999636e-01 -2.870721568786999800e+00 -2.278958270300000116e-02 -4.009551177969999936e-01 -3.124694072620000096e-01 -5.116443293710000173e-01 -1.605171225539999968e-01 3.291873047100000310e-02 -1.353107116610000049e-01 -3.849808449720000247e-01 -5.059278666659999812e-01 -1.887833990070000023e-01 5.470445806199999983e-02 -2.034520651070000075e-01 -1.449548982759999993e-01 3.447068014299999733e-02 -2.976658308849999823e-01 4.277785078010000186e-01 2.063297162661000161e+00 -1.023488044735999969e+00 -1.224107527800000067e-01 -3.249805890040000089e-01 4.300011995290000111e-01 4.826295098999999755e-01 -7.811308079100000301e-02 4.950761066930000065e-01 -7.075246569899999727e-02 -2.124484867429999868e-01 -8.438354928200000327e-01 1.435181721949999878e-01 2.213319128479999953e-01 5.453010507929999529e-01 6.819197828849999921e-01 6.248757623799999772e-02 3.963876496190000265e-01 -2.499782829340000123e-01 2.232915807081000015e+00 1.094531139949999954e+00 4.120014709220000126e-01 -2.288387848200000019e-01 3.416994303750000017e-01 1.042000701237999927e+00 -1.257151440379999929e-01 3.059307236150000109e-01 7.956415398789999927e-01 -9.010531365370000323e-01 -2.796922286929999779e-01 1.212995870050000008e-01 -1.931144415540000103e-01 5.255606384090000249e-01 -1.188038298909999957e-01 1.185306738030000029e-01 2.921816286180000111e-01 -2.839347451770000141e-01 1.028524203249000069e+00 2.945932789769999949e-01 -6.355221658130000284e-01 -3.207752310559999764e-01 2.865229914749999884e-01 -8.005704508180000456e-01 -6.344828570139999790e-01
-1.119951903762999912e+00 9.333422394870000138e-01 -4.416731811160000132e-01 -4.657383243489999769e-01 5.294860306590000176e-01 -9.773608924999999809e-03 -2.326424032620000026e-01 -8.931223024409999933e-01 -2.516555650100000263e-01 1.729384993699999845e-02 -3.513099965529999924e-01 3.683515901509999968e-01 1.125923128161999909e+00 5.358546857089999671e-01 6.237951835000000306e-02 9.275040286069999862e-01 7.945223347969999628e-01 -1.699675891509999925e-01 8.263028011980000365e-01 -4.278366310169999798e-01 -1.980946235280000023e-01 1.161422161479999937e-01 -4.987151156499999849e-01 1.156397456489999948e-01 2.019947199819999983e-01 -9.408596154100000442e-02 -6.478623041850000153e-01 -7.876680376789999549e-01 6.140840946419999780e-01 6.010511944199999762e-02 -2.455180107259999911e-01 -1.017159834631000015e+00 -2.030190330017000111e+00 -2.250869833709999990e-01 4.991390052049999859e-01 -2.357994325330000085e-01 -2.255932037820000124e-01 2.213980361929999974e-01 2.855817064491000146e+00 -3.839326533660000207e-01 -6.319926603669999698e-01 -3.008666184599999988e-02 -4.828526434199999912e-02 -8.507399522699999883e-01 3.110743317999999924e-01 1.011813488148000095e+00 7.477681695340000489e-01 -1.011221510414999969e+00 -5.198306196540000146e-01 -1.010515742344000101e+00 2.847623338200000118e-02 -1.714163104800000073e-02 -2.084476765649999896e-01 2.537569642599999953e-01 -1.354695886439999941e-01 -1.004692219777000073e+00 2.554299208849999947e-01 -1.948246042300000036e-01 -8.939579363630000275e-01 3.271874260170000159e-01 1.041243321662999932e+00 -8.474191006499999512e-02 -7.315033725189999947e-01 -2.631210581890000011e-01 6.269962599720000362e-01 -1.260887113300000056e-02 -1.000845713140000037e-01 -2.492802247500000012e-01 5.434496203499999956e-01 6.574491683740000258e-01 -2.294883881189999919e-01 7.651666023700000319e-02 -1.839962369350000015e-01 1.233250391781999911e+00 2.260394340219999965e-01 -2.697323712849999944e-01 1.681841795179999932e-01 3.855135296180000060e-01 -2.386042655389999934e-01 -5.528674506190000004e-01 -1.839000161269999933e-01 1.028236601519999932e-01 1.066560606382999987e+00 7.067264271800000053e-02 4.217421706739999943e-01 -8.445733426899999785e-02 1.841508261888000098e+00 -1.079889538163000040e+00 -2.920709817600000008e-02 3.274259094820000104e-01 2.538686193499999910e-01 4.511061755190000078e-01 3.380263398360000004e-01 5.726160606269999898e-01 -5.234599185820000278e-01 1.126639012690999975e+00 -1.010390356362000031e+00 -3.571578560199999836e-02 -5.558445528430000504e-01 -1.989281880790000068e-01 -1.280419948568999988e+00 -7.617273687729999576e-01 -1.428345886880000026e-01 3.297405620389999847e-01 2.995369594099999908e-02 -1.962144210600000049e-01 1.715228722509999915e-01 -1.559388286100000034e-02 4.748908120320000092e-01 1.041999855747999915e+00 5.365365320599999738e-02 -1.145133776930000041e-01 -8.857191679699999431e-02 -1.055903440682000038e+00 7.499163000209999597e-01 -4.201172409080000114e-01 -3.670272030960000098e-01 -1.015321435520000065e-01 1.495947746538000001e+00 -9.471831596580000401e-01
-7.803506177989999459e-01 7.037730259140000388e-01 -5.924968708719999810e-01 -3.114838147639999999e-01 4.428409115390000150e-01 2.441268887880000127e-01 -1.365230410459999932e-01 -7.182653118439999984e-01 -1.029520770720000061e-01 -3.168749773360000077e-01 3.321753581100000269e-02 6.360830285449999844e-01 7.561189724019999892e-01 2.102439218330000026e-01 -1.549413492200000034e-02 5.591989661670000444e-01 7.141985620440000071e-01 1.211571409439999997e-01 6.723684459009999781e-01 -7.494141537800000363e-02 -1.798636258159999890e-01 3.345027397599999869e-02 -3.722167168969999773e-01 3.145868292349999762e-01 -1.605429799620000098e-01 -4.116428378850000014e-01 -5.742602863160000126e-01 -7.946649828980000274e-01 1.510166127049999973e-01 -2.145826788730000045e-01 -3.745838097299999947e-02 -4.111594293799999966e-01 -1.015851074753999939e+00 5.475351012500000447e-01 1.700901004919999904e-01 -2.675041110420000035e-01 7.570959393699999707e-02 2.446304478780000069e-01 2.149934987731000113e+00 -1.006489544211000009e+00 -2.306702938159999883e-01 5.179023031499999652e-01 -2.281699651490000091e-01 -1.768309269949999984e-01 8.934109017100000383e-02 1.163186076749999964e+00 7.541629453779999936e-01 -8.538866474370000459e-01 -2.624960718120000203e-01 -8.611846570119999766e-01 2.283677283409999981e-01 -4.720477602370000136e-01 -4.336210245279999986e-01 -1.435719271829999921e-01 -1.103434319219999959e-01 -7.705097145150000548e-01 2.037590941430000024e-01 -3.421660735800000075e-01 -8.113587735430000114e-01 -1.552511326700000138e-01 2.595585448408999962e+00 1.821568366799999894e-02 -5.889034026480000072e-01 -1.216466733360000024e-01 1.055114293724999985e+00 4.308715917309999810e-01 -1.189940873809999938e-01 -2.464271770689999974e-01 5.813754628430000126e-01 7.689646730810000275e-01 -1.368709590659999975e-01 -1.066339905350000006e-01 -1.495798873910000049e-01 7.602125669000000530e-01 2.809817029200000205e-01 -1.154451059839999988e-01 -1.702615438379999901e-01 -8.942442119610000129e-01 8.667836774510000453e-01 -7.695234206190000315e-01 2.371571859169999963e-01 -2.568161095939999750e-01 5.290396924019999947e-01 3.941868438000000197e-01 -2.233668624590000040e-01 2.631434584640000018e-01 1.649247389634000083e+00 -2.262689720330000043e-01 -8.360538771900000166e-02 4.876859351789999963e-01 -1.045717264469999963e-01 3.263559604460000152e-01 2.126060453199999922e-01 6.608898768400000012e-01 -5.024363966689999739e-01 -8.521280475529999787e-01 -1.153620215242000091e+00 -4.190397165040000149e-01 -4.296611756400000037e-01 -6.957126778190000360e-01 -1.606554881537999968e+00 -6.379382716779999907e-01 -6.319285939590000289e-01 -1.459060150039999948e-01 5.872349787380000130e-01 4.608467775789999998e-01 2.611424162209999844e-01 8.752044081300000555e-02 1.880741814780000076e-01 6.254579195349999621e-01 -6.834446501999999826e-03 -5.067773854770000197e-01 1.663384892539999937e-01 -1.232552478229000048e+00 3.926277059089999799e-01 -8.541795466800000680e-02 -1.357066930090000123e-01 -4.769998323190000056e-01 2.009250010280000165e+00 -4.538093832299999741e-01
1.604268691300000105e-01 1.611981743929999933e-01 -4.693886542919999960e-01 -6.821819544099999577e-02 1.404885202720000115e-01 9.763833911800000320e-02 1.687722219449999950e-01 -3.115074739470000131e-01 3.647891924350000203e-01 -6.316611591120000480e-01 6.776983213899999692e-01 5.302627206540000415e-01 5.969214029299999696e-02 -1.844484037580000069e-01 2.578288908000000035e-03 1.039628204770000064e-01 4.509370833799999922e-01 1.823027030019999939e-01 4.365516289710000275e-01 4.078449123349999761e-01 2.099484750000000025e-02 1.459171156909999933e-01 -1.007197976310000020e-01 3.248118280769999866e-01 -5.788019650960000151e-01 -1.031652519809999946e+00 -3.199239970400000188e-01 -5.041515417880000349e-01 -5.011769642640000466e-01 -7.718995902030000300e-01 3.193914369590000191e-01 4.016120503550000276e-01 2.417861417939999868e-01 6.854359329950000523e-01 -3.688898666620000211e-01 8.245427191409999690e-01 3.660700149030000072e-01 1.279442712999999954e-01 -6.389565747650000072e-01 -1.069414365142999923e+00 8.328057938399999749e-01 1.254382866357000026e+00 -2.631738531610000043e-01 1.175287678774999955e+00 -4.497927594219999770e-01 7.038905555350000176e-01 3.150518579480000025e-01 -5.518292347219999616e-01 -5.508731826700000167e-02 -3.932664028819999880e-01 6.091742841070000303e-01 -4.177455262629999888e-01 -5.691109191580000504e-01 -5.440077427299999657e-01 -1.244275079149999991e-01 3.184790765939999879e-01 2.460897384400000110e-02 -4.324592722719999838e-01 -2.521055614139999790e-01 -6.426945035069999701e-01 1.821670709513999897e+00 1.900394560650000009e-01 9.244440464500000565e-02 -2.523672141400000110e-02 2.063212797950000066e-01 8.287806694089999704e-01 -6.071661832999999953e-02 -1.533508317969999868e-01 -6.820125387169999609e-01 2.695201655999999724e-01 1.742032015299999903e-01 -4.151825959750000128e-01 -6.489054682099999749e-02 -1.218929791352000080e+00 2.443632425649999995e-01 1.409973929630000122e-01 -4.540345420760000250e-01 -4.640296236240000205e-01 1.213313650272999977e+00 -7.385287623149999758e-01 6.738376488320000357e-01 -4.589096912639999970e-01 -4.536124285379999899e-01 5.361343867940000507e-01 -8.436493798169999447e-01 7.024989598380000366e-01 -4.075836350220000126e-01 4.745159809280000140e-01 -5.863680113300000218e-02 4.400474294969999867e-01 -2.630311415039999767e-01 1.353361916070000004e-01 -8.895584333700000401e-02 4.562872045290000123e-01 -1.743084715040000010e-01 -1.467026580338999908e+00 4.855036642650000234e-01 -5.014386224539999493e-01 -1.851500122720000086e-01 -6.103353157959999775e-01 -5.001403304899999791e-02 6.684725062999999357e-02 -8.348743898089999727e-01 -4.635443032620000237e-01 1.010677671400000005e-01 1.017426872271000038e+00 2.648369076739999772e-01 1.012693844090000045e-01 -1.310330191970000002e-01 -1.068811800170000048e-01 -2.303693392389999928e-01 -7.559744604570000082e-01 5.432925455270000148e-01 2.779254423399999951e-01 -3.400730957149999956e-01 2.285652484300000065e-01 2.179680493149999954e-01 -4.954812926570000275e-01 6.317161459740000540e-01 2.702446446899999799e-01
8.229986984189999744e-01 -2.571034099760000080e-01 -2.297399941000000112e-01 1.674889896479999918e-01 -1.085829994899999984e-01 -2.622832042559999910e-01 4.905682693189999943e-01 7.128167781100000489e-02 9.312159479820000252e-01 -6.044291321239999570e-01 1.142069266889000012e+00 -1.039648012400000085e-02 -4.701917643619999976e-01 -3.843115737639999918e-01 6.090180085500000035e-02 -3.945312468220000257e-01 2.182387683610000073e-01 5.197770018700000050e-02 2.382382420389999866e-01 6.401312191250000394e-01 2.022409223989999894e-01 3.316505525300000173e-02 6.400248830799999677e-02 1.905577732339999997e-01 -4.530681404310000215e-01 -1.096092883394000017e+00 2.581214753450000177e-01 8.381511299389999836e-01 -4.112489153600000225e-01 -9.212666834920000269e-01 1.998438231980000090e-01 1.094647887278000109e+00 1.624716517623000067e+00 1.664108709200000022e-02 -8.581419525179999619e-01 1.417236160162999914e+00 1.076398513270000051e-01 6.362821002480000265e-01 -1.797072777319000059e+00 -3.941221179430000054e-01 9.779390695749999862e-01 1.317597271322000108e+00 4.069241802049999857e-01 1.656848006419999964e+00 -6.231783627239999568e-01 1.574950720030000029e-01 1.685603679099999946e-02 -3.713535892729999954e-01 8.908437465700000391e-02 2.763797024899999899e-02 2.710954381119999868e-01 -1.197401761970000034e-01 -4.841210948099999856e-01 -5.385015006350000188e-01 -1.686669571219999997e-01 3.163118873140000065e-01 -1.723124081450000122e-01 -4.106121812529999748e-01 2.933088318900000102e-01 -7.989900891469999822e-01 -6.478744695820000121e-01 2.365378372059999956e-01 7.005877578450000476e-01 -3.024712440300000166e-02 -1.208051373598000078e+00 8.448089465660000297e-01 5.192647177000000308e-02 -7.777073628099999414e-02 -6.196407019909999647e-01 -3.808213653899999995e-02 4.324453051400000136e-01 -5.179075876519999566e-01 1.075624651679999988e-01 -1.380874376149999971e+00 7.945875868900000027e-02 3.218966209870000039e-01 -5.515335873760000007e-01 -1.165136818710000022e-01 5.230514357600000303e-02 -3.290413126749999750e-01 7.106559238070000450e-01 -4.609568529099999923e-01 -9.883344783459999672e-01 4.180991620410000054e-01 -6.981188751069999920e-01 5.805751845709999914e-01 -2.747363485200000177e+00 6.326402913409999718e-01 -1.037716758100000053e-01 2.547442970150000097e-01 -2.017217542899999994e-01 -4.381070195319999860e-01 -3.131869165289999923e-01 3.138773498099999837e-01 2.497574049890000092e-01 -8.641864593460000243e-01 1.597360489506999937e+00 -2.349813119710000009e-01 9.781986089999999967e-03 9.541495543300000659e-02 1.484664267169000018e+00 5.482348429329999551e-01 -6.207063408399999815e-01 -5.717358982719999982e-01 -3.976417268790000126e-01 4.474348509400000173e-01 6.927079581400000241e-02 8.380173607700000526e-02 -2.526538202549999945e-01 -2.185272432079999883e-01 -3.712824515870000175e-01 -4.590260000329999812e-01 7.588090488340000217e-01 6.130102057070000443e-01 -6.764707268220000458e-01 4.233498230059999923e-01 3.819533684399999962e-01 -8.743759459899999587e-02 -1.688633034458999926e+00 7.020201078390000404e-01
6.749020960689999793e-01 -2.983149817510000190e-01 -1.971805355099999837e-02 2.633323574950000023e-01 -1.630466000509999958e-01 -5.537319963140000523e-01 6.696115490020000394e-01 1.728707950860000064e-01 1.221542016878000014e+00 -3.123638707659999736e-01 1.350231076682000042e+00 -6.204495686600000059e-01 -4.705348452049999963e-01 -4.257567747470000219e-01 1.927387869609999971e-01 -8.239399603979999931e-01 4.109571639899999712e-02 -1.603499583000000117e-01 1.905923714090000110e-01 6.179773523029999938e-01 2.615511993019999926e-01 -3.940674428320000144e-01 1.290642016659999947e-01 1.780516841799999889e-02 1.283000130710000020e-01 -3.087119761009999852e-01 9.574127002550000265e-01 2.828012411518999958e+00 -1.256622647769999879e-01 -5.232488508189999665e-01 2.034584431420000117e-01 1.007743129517000069e+00 3.607754007499999749e-02 -6.463962987300000407e-01 -9.535825998439999562e-01 4.869258115810000120e-01 -4.212299686900000117e-01 5.802774012229999778e-01 -1.358535272137000094e+00 2.809307047290000026e-01 -7.263841299499999848e-02 4.393620305009999782e-01 1.681084383893000078e+00 5.848366500160000481e-01 -6.371156597100000041e-02 -3.442409830279999916e-01 -1.778651777539999868e-01 3.554276061430000078e-01 2.672526319229999725e-01 2.434438933999999999e-01 -7.370282845090000423e-01 8.336909338200000630e-02 -2.328664593329999866e-01 -2.197989283919999925e-01 -9.107629070499999313e-02 -7.248753359990000034e-01 -1.793568505279999892e-01 -3.581611257649999769e-01 3.842878544030000065e-01 -1.986742003679999868e-01 -2.463790224508000115e+00 -2.424181104499999878e-02 7.184839261459999848e-01 -1.533254908360000002e-01 -1.445809748977999964e+00 3.645405478400000066e-01 1.848302447990000097e-01 -9.328905295099999828e-02 7.425087858209999947e-01 -1.969627607639999889e-01 4.123389888469999875e-01 -2.327469594279999998e-01 1.459121009350000109e-01 2.884206287600000196e-01 -9.417071578300000023e-02 2.875791735530000004e-01 -5.199479008980000261e-01 -2.134592100649999880e-01 -1.783885979609000083e+00 1.640625974000000098e-01 3.187240021430000070e-01 -2.546034859040000042e-01 -3.572061183640000137e-01 8.098350922199999691e-02 -5.232621109930000181e-01 5.055501608189999496e-01 -2.067234366599000062e+00 4.025363622959999832e-01 -2.388206387110000106e-01 1.179756998000000001e-01 7.210553510999999881e-03 -7.797756026159999854e-01 -4.770665381620000089e-01 1.952182880610000004e-01 6.080392983969999943e-01 7.427393769600000584e-02 1.010779725913999894e+00 -7.744250598599999869e-02 -3.254037250480000254e-01 7.431948074159999695e-01 1.224377897674999938e+00 5.882624070230000335e-01 -2.550432139370000240e-01 -5.843378471450000333e-01 -2.691262980570000019e-01 -4.103787345680000032e-01 -1.936683584549999948e-01 2.415466035399999878e-01 -2.162974145300000095e-01 -9.256602006200000121e-02 -1.556699066000000100e-03 4.519568471799999959e-02 7.451302499190000095e-01 5.409339473750000016e-01 -2.270548331820000099e-01 4.699281072839999740e-01 2.780611985579999890e-01 5.331203811400000298e-02 -1.639249811233000065e+00 2.802306164789999943e-01