-4.774108263505964622e+00 8.507419327256604547e-01 8.659665193014240425e-02 8.507419327256604547e-01 -1.146102132185260025e+01 1.776315660649245010e-01 8.659665193014240425e-02 1.776315660649245010e-01 -4.346108482934742057e+00
-2.407344425810505228e+00 1.182861717628225229e+00 3.295891897206436327e-02 1.182861717628225229e+00 -2.330456154906478616e+00 1.922518467997868519e-01 3.295891897206436327e-02 1.922518467997868519e-01 -3.324768157410785685e-01
6.615428280119355797e+00 1.323376592389112538e+00 2.547934812095568602e-01 1.323376592389112538e+00 8.193079683999586749e+00 5.412170780932501479e-02 2.547934812095568602e-01 5.412170780932501479e-02 4.058813742490795740e+00
4.241167939573357692e+00 1.017668859472445897e+00 6.558834174630958636e-01 1.017668859472445897e+00 1.377214186220719228e+00 3.411341297777502612e-01 6.558834174630958636e-01 3.411341297777502612e-01 4.082146704991835406e+00
-4.569552604190887379e+00 3.385314255511900905e-01 1.108561887933720902e+00 3.385314255511900905e-01 -4.860267727267195248e+00 1.030455572046907964e+00 1.108561887933720902e+00 1.030455572046907964e+00 1.251884998142627214e-01
-7.960650678080496867e+00 -1.521052841413928491e-01 1.711963212327455297e+00 -1.521052841413928491e-01 -5.136085233396991967e+00 1.711812642820010444e+00 1.711963212327455297e+00 1.711812642820010444e+00 -4.554822353526571277e+00
-7.025288174807935881e+00 1.601482262285560190e-02 2.077630044056518521e+00 1.601482262285560190e-02 -1.880991709371985232e-01 1.735485974850812019e+00 2.077630044056518521e+00 1.735485974850812019e+00 -4.145360372030893359e+00
-2.247251070679833873e+00 -3.978673130758108578e-01 2.143622005113923201e+00 -3.978673130758108578e-01 6.996551581189460300e+00 1.353117699292222031e+00 2.143622005113923201e+00 1.353117699292222031e+00 1.704995852970891068e+00
2.466744778149184469e+00 -1.199905384477814252e+00 2.809994597456650034e+00 -1.199905384477814252e+00 4.255734233040901593e+00 7.056859059491227271e-01 2.809994597456650034e+00 7.056859059491227271e-01 1.752210693273753561e+00
-6.959579968565793306e-01 -1.036589197633455584e+00 2.105912588318648471e+00 -1.036589197633455584e+00 -3.833443555266992320e+00 9.291539876136942766e-01 2.105912588318648471e+00 9.291539876136942766e-01 -2.495295065023751757e+00
-4.834975058277859006e+00 -8.112816892977574579e-01 8.092466625950079928e-01 -8.112816892977574579e-01 -7.803119549737759009e+00 1.222625657899426566e+00 8.092466625950079928e-01 1.222625657899426566e+00 -4.551682495310965137e+00
-6.683125019124084965e+00 -9.032668989736818421e-01 4.909740109463075486e-01 -9.032668989736818421e-01 -8.459945379773531116e+00 8.276921034438745606e-01 4.909740109463075486e-01 8.276921034438745606e-01 -2.856776766533440259e+00
-2.008050743472988842e+00 -7.561543219328501486e-01 1.077360633925068534e+00 -7.561543219328501486e-01 -6.172976899483034963e+00 1.243008649310098496e-01 1.077360633925068534e+00 1.243008649310098496e-01 5.861482232058994324e-01
-1.415669436483672383e+00 -8.688681820627883745e-01 4.194110437904897681e-01 -8.688681820627883745e-01 -5.430503686131516794e+00 -4.439373630878269972e-01 4.194110437904897681e-01 -4.439373630878269972e-01 7.593006794296984774e-01
-6.864601784705604004e+00 -1.176344150559353041e+00 -5.735965564324302379e-02 -1.176344150559353041e+00 -9.493111554404878305e+00 -6.902897414814269661e-01 -5.735965564324302379e-02 -6.902897414814269661e-01 -5.602237090591581037e+00
-7.023089253653234998e+00 -1.043631529698439309e+00 1.460006955006205309e-01 -1.043631529698439309e+00 -1.049893325092521579e+01 -1.051902503348516538e+00 1.460006955006205309e-01 -1.051902503348516538e+00 -8.771063867935289693e+00
-3.897727602647924172e+00 -5.103410918061402901e-01 5.674806387457443924e-01 -5.103410918061402901e-01 -7.797991707787991444e+00 -1.347961036139717406e+00 5.674806387457443924e-01 -1.347961036139717406e+00 -4.414846217399364114e+00
2.220335080484237000e+00 1.528466923210353157e-01 8.186983478249901802e-01 1.528466923210353157e-01 -2.651243407977685873e+00 -1.178855554562205921e+00 8.186983478249901802e-01 -1.178855554562205921e+00 2.820763978686394058e+00
5.614481761009260552e+00 5.128502209211300844e-01 -5.950899420582898836e-02 5.128502209211300844e-01 4.666673702872613738e+00 -5.680855462968417147e-01 -5.950899420582898836e-02 -5.680855462968417147e-01 7.306931544802722556e+00
1.643950735289755771e+00 8.265988153101545555e-01 -3.625268088078216211e-01 8.265988153101545555e-01 8.046877377621928673e+00 -9.603369486599304741e-03 -3.625268088078216211e-01 -9.603369486599304741e-03 4.463150404216200684e+00
-1.464412561016435355e+00 7.183135830423809098e-01 3.356371121716715811e-01 7.183135830423809098e-01 8.239888295459055101e+00 -1.437456977519166734e-01 3.356371121716715811e-01 -1.437456977519166734e-01 5.348137825672450996e-01
-2.515146395833974591e+00 2.545073808958967509e-01 8.178594413079379732e-01 2.545073808958967509e-01 7.284526435449203419e+00 -4.996085504211275619e-01 8.178594413079379732e-01 -4.996085504211275619e-01 2.379989321132466862e-01
5.845040021967836674e-01 -7.917025850871038939e-01 8.601703010836285745e-01 -7.917025850871038939e-01 3.446006565323117332e+00 -8.766302328421908818e-01 8.601703010836285745e-01 -8.766302328421908818e-01 2.748923734552734643e+00
5.204536237836676627e+00 -1.678041122334657409e+00 4.938972354537948806e-01 -1.678041122334657409e+00 1.741361683268517480e+00 -1.594481029902521163e+00 4.938972354537948806e-01 -1.594481029902521163e+00 6.759567011623244248e+00
1.625403386208344181e-01 -1.275648732762666882e+00 4.435720200320796835e-01 -1.275648732762666882e+00 -1.539264848939261521e+00 -2.239297059351978092e+00 4.435720200320796835e-01 -2.239297059351978092e+00 3.899354939640167217e+00
-7.921919745604884433e+00 -9.606532895962447416e-01 9.255215692129489247e-01 -9.606532895962447416e-01 -8.089584431902578032e+00 -2.420925534442522231e+00 9.255215692129489247e-01 -2.420925534442522231e+00 -4.040542698777193742e+00
-1.085884722940126501e+01 -1.131716760126309396e+00 8.283564247475170284e-01 -1.131716760126309396e+00 -1.249835245635918746e+01 -2.212030449041414659e+00 8.283564247475170284e-01 -2.212030449041414659e+00 -8.798816796244752325e+00
-9.827793483763361593e+00 -1.065771379477820746e+00 4.269894137343590579e-01 -1.065771379477820746e+00 -1.228972247607532609e+01 -1.803558544653440343e+00 4.269894137343590579e-01 -1.803558544653440343e+00 -7.960852017967575911e+00
-7.842051403266124154e+00 -5.785080972538951816e-01 2.513891479260791512e-02 -5.785080972538951816e-01 -6.671295614883877789e+00 -1.287507467561257002e+00 2.513891479260791512e-02 -1.287507467561257002e+00 -2.216878645634879241e+00
-6.424005875466843207e+00 -4.186035993419081058e-01 2.140101415704206145e-01 -4.186035993419081058e-01 -2.521309998206118230e+00 -9.410725231485501663e-01 2.140101415704206145e-01 -9.410725231485501663e-01 -1.560639674843224689e-01
-5.370817010938528036e+00 -2.925016748444112524e-01 8.058046241757389483e-01 -2.925016748444112524e-01 3.043418052788278150e+00 -1.245405504219952331e+00 8.058046241757389483e-01 -1.245405504219952331e+00 -2.597632941864330136e-01
-4.205752442704378424e+00 -5.890107571791570740e-01 8.990680110536526382e-01 -5.890107571791570740e-01 6.681991950898051869e+00 -8.351199518869288907e-01 8.990680110536526382e-01 -8.351199518869288907e-01 -1.875652657934488432e-01
-2.790914107017356205e+00 -7.453398763059643217e-01 1.281474063235357175e+00 -7.453398763059643217e-01 5.851182686422657042e+00 -1.440135038707673898e-01 1.281474063235357175e+00 -1.440135038707673898e-01 1.761231184615706491e+00
-1.225108423529760682e+00 -4.814102800672023785e-01 1.800291355296574913e+00 -4.814102800672023785e-01 6.950616563989763463e+00 1.521484429418745454e-01 1.800291355296574913e+00 1.521484429418745454e-01 4.471469719762506401e+00
-3.334064740727200604e-01 -1.706084550636311203e-01 2.302196463162534013e+00 -1.706084550636311203e-01 4.280615843727665570e+00 -7.904359789591532126e-02 2.302196463162534013e+00 -7.904359789591532126e-02 1.855893939294748884e+00
3.918415642858622677e-02 4.346300626304330089e-02 2.222991302011352310e+00 4.346300626304330089e-02 1.112012565458302626e+00 -1.973739798830407288e-01 2.222991302011352310e+00 -1.973739798830407288e-01 1.814392990916874782e+00
-5.365669184536473457e-01 3.148472054365487049e-01 1.899110886718327951e+00 3.148472054365487049e-01 8.784480510340377801e-01 -2.620301420876929299e-01 1.899110886718327951e+00 -2.620301420876929299e-01 1.757478258542157112e+00
-2.722098154900722267e-01 -3.254076486969624624e-03 1.471322284476409559e+00 -3.254076486969624624e-03 6.533637540036772995e-01 -8.953808692673429492e-01 1.471322284476409559e+00 -8.953808692673429492e-01 1.828644362038219562e+00
1.917153111129087151e+00 -6.752030085972090534e-01 4.418618158547876762e-01 -6.752030085972090534e-01 4.730627420747650080e-01 -1.768124335174577677e+00 4.418618158547876762e-01 -1.768124335174577677e+00 3.525955776198064218e-01
9.057293487522719566e-01 -8.820453951537861048e-01 4.515737774969359741e-02 -8.820453951537861048e-01 -2.459939282519838510e+00 -1.547032847727014548e+00 4.515737774969359741e-02 -1.547032847727014548e+00 -4.628162651751119405e+00
-4.749029956339021474e+00 -1.103516818014516288e+00 6.213367064758205105e-01 -1.103516818014516288e+00 -6.605344333261992773e+00 -8.357217986134627408e-01 6.213367064758205105e-01 -8.357217986134627408e-01 -7.816355382038207011e+00
-6.463621239388718465e+00 -1.189348991940182287e+00 7.289594812398106916e-01 -1.189348991940182287e+00 -7.506103258408315604e+00 -5.232283397233418176e-01 7.289594812398106916e-01 -5.232283397233418176e-01 -4.638228406944332249e+00
-2.856618421707163957e+00 -1.295864289130396418e+00 -3.197583871260872845e-02 -1.295864289130396418e+00 -7.299070515004602910e+00 -7.121813222413975186e-01 -3.197583871260872845e-02 -7.121813222413975186e-01 -2.446890742554778342e+00
-2.957343000986984438e-01 -1.487257039402398284e+00 -4.787823828456491682e-01 -1.487257039402398284e+00 -6.663223769504186933e+00 -9.795148264718391840e-01 -4.787823828456491682e-01 -9.795148264718391840e-01 -6.069319031216366511e+00
1.497273269414964414e+00 -9.294860115405785272e-01 -2.940813284144113693e-01 -9.294860115405785272e-01 -5.101613956124574578e+00 -1.092198137133358005e+00 -2.940813284144113693e-01 -1.092198137133358005e+00 -7.132960968688602854e+00
-3.033019459161979015e+00 -8.239961889067808354e-01 -4.082535704881193328e-01 -8.239961889067808354e-01 -4.071048717622212543e+00 -1.258742601335385514e+00 -4.082535704881193328e-01 -1.258742601335385514e+00 -5.248743250946601435e+00
-3.951917721941439865e+00 -1.338407528317514084e+00 -2.376040441886702048e-01 -1.338407528317514084e+00 -1.179305271680084699e+00 -1.199866448753838410e+00 -2.376040441886702048e-01 -1.199866448753838410e+00 -3.183723939193695340e+00
2.160911364344562990e+00 -1.864930752029310357e+00 -1.481304315418249806e-01 -1.864930752029310357e+00 4.091183977892185908e+00 -5.466532072295948730e-01 -1.481304315418249806e-01 -5.466532072295948730e-01 -8.394637888214044608e-02
3.608823901461115646e+00 -1.860482510022247071e+00 -1.472684346856720505e-01 -1.860482510022247071e+00 3.438648596164231908e+00 -4.024814330784324407e-02 -1.472684346856720505e-01 -4.024814330784324407e-02 2.456219754952674528e+00
3.769669637950102903e+00 -1.728481946107633282e+00 -1.229261384527189638e-01 -1.728481946107633282e+00 -1.415483106539865976e-01 4.222978378426596735e-01 -1.229261384527189638e-01 4.222978378426596735e-01 7.580230320051319914e-01
2.927023855113188411e+00 -1.957433734393546176e+00 2.371837751644023384e-01 -1.957433734393546176e+00 -3.348097930714383885e+00 1.149201917025774344e+00 2.371837751644023384e-01 1.149201917025774344e+00 8.924332201042570745e-01
4.834501735729532790e-01 -2.671348282160370680e+00 -4.732443578009508101e-01 -2.671348282160370680e+00 -3.827689083443635454e+00 1.349819510410581902e+00 -4.732443578009508101e-01 1.349819510410581902e+00 9.382668180924343959e-01
1.589064570164945289e+00 -2.388640149463088225e+00 -1.464950813356272086e+00 -2.388640149463088225e+00 -2.658307423991467022e+00 7.998012185988718770e-01 -1.464950813356272086e+00 7.998012185988718770e-01 2.194433961547870737e+00
3.513381223770407402e+00 -1.419663367120001851e+00 -1.315439269274697898e+00 -1.419663367120001851e+00 2.616935031082603391e+00 -3.238248384042453631e-01 -1.315439269274697898e+00 -3.238248384042453631e-01 2.197220589728927642e+00
-5.809643653488545390e-01 -6.605572640951589136e-01 -1.226134918514302452e+00 -6.605572640951589136e-01 -9.445988083694942805e-01 -1.994514705251332620e-01 -1.226134918514302452e+00 -1.994514705251332620e-01 -2.400631454983081170e+00
-4.714713354344021390e+00 8.438938041282997293e-01 -1.098318487468868954e+00 8.438938041282997293e-01 -4.874788106915455721e+00 2.910726893823113448e-01 -1.098318487468868954e+00 2.910726893823113448e-01 -6.761003712193201842e+00
-4.133983294578589707e+00 1.991489615674219227e+00 4.357331113572380371e-02 1.991489615674219227e+00 -9.498677687181285023e+00 2.802285104155580187e-01 4.357331113572380371e-02 2.802285104155580187e-01 -4.368906977845806949e+00
-2.352774477486066218e-01 2.160239535102875141e+00 1.450347489059666539e-01 2.160239535102875141e+00 -1.217169688328943344e+01 2.564415371591906578e-01 1.450347489059666539e-01 2.564415371591906578e-01 -1.390858873921819283e+00
2.068838882039864213e+00 1.590763639291110421e+00 -5.436096167925458245e-01 1.590763639291110421e+00 -9.807469398356699841e+00 2.338501958891724963e-01 -5.436096167925458245e-01 2.338501958891724963e-01 -5.043011271232579418e+00
5.930930052011395004e-01 5.792301630723620809e-01 3.563066135471014140e-01 5.792301630723620809e-01 -4.685646194443132018e+00 6.555622451693647601e-02 3.563066135471014140e-01 6.555622451693647601e-02 -8.092192726290381444e+00
-8.170887899119044562e+00 6.644901757606958004e-01 1.207775526835847435e+00 6.644901757606958004e-01 -1.391928055436665534e+00 2.572202373939551645e-01 1.207775526835847435e+00 2.572202373939551645e-01 -8.756263788758793964e+00
-1.004322210249659264e+01 1.219299291776452021e+00 9.593440335334815217e-01 1.219299291776452021e+00 -2.687284371315319831e+00 2.982368648934626276e-01 9.593440335334815217e-01 2.982368648934626276e-01 -8.243377978244508242e+00
-3.615738945791203918e+00 7.710243549338681168e-01 5.591208565774050676e-01 7.710243549338681168e-01 -2.930904211060076481e+00 1.702420406628395166e-02 5.591208565774050676e-01 1.702420406628395166e-02 -3.933010691118479230e+00
7.006411806411513288e-01 -3.773625580558105930e-01 3.395606764553991963e-02 -3.773625580558105930e-01 1.294500024723626574e-01 -3.889600956212254101e-01 3.395606764553991963e-02 -3.889600956212254101e-01 4.364104670330996028e-01
2.113701316024663601e+00 -1.053106738677509036e+00 -4.310599101067411065e-02 -1.053106738677509036e+00 4.396208739680087518e+00 -4.744365862127806199e-01 -4.310599101067411065e-02 -4.744365862127806199e-01 1.577974505734847765e+00
1.509786324124589241e+00 -1.272388873832273504e+00 3.449768939386527178e-01 -1.272388873832273504e+00 6.265847195172789874e+00 -4.740465142282237476e-01 3.449768939386527178e-01 -4.740465142282237476e-01 3.512603838811510393e+00
5.324785229053887736e-01 -5.021438598888128269e-01 3.836329942970833073e-01 -5.021438598888128269e-01 5.406705525326097828e+00 -2.738402779561954076e-02 3.836329942970833073e-01 -2.738402779561954076e-02 7.843498971610637360e-01
2.285228491788495742e+00 9.205026433501847793e-02 2.834453873086936193e-01 9.205026433501847793e-02 3.484938018092284207e+00 1.190535222634005130e+00 2.834453873086936193e-01 1.190535222634005130e+00 -8.681623912987679326e-01
4.227312350051030343e+00 -7.200031331483764882e-03 7.460489296901794409e-01 -7.200031331483764882e-03 3.328734503367721143e+00 2.302371420827071802e+00 7.460489296901794409e-01 2.302371420827071802e+00 1.619794433063297623e+00
7.198714227475626615e-01 2.135380795994309411e-01 1.472179423262361730e+00 2.135380795994309411e-01 1.984947713938503666e+00 2.629842505779544481e+00 1.472179423262361730e+00 2.629842505779544481e+00 3.033400609244964574e+00
-7.966214087948965128e-01 1.072699892011747203e+00 1.879492909279533164e+00 1.072699892011747203e+00 -1.484986989172661032e+00 2.575154483714817033e+00 1.879492909279533164e+00 2.575154483714817033e+00 1.459244304297634631e+00
5.589215190825403745e+00 1.692364990775837352e+00 1.918874268594039867e+00 1.692364990775837352e+00 -3.553276448312639335e+00 2.221670459417744770e+00 1.918874268594039867e+00 2.221670459417744770e+00 -1.092086698510382092e+00
8.776167994318825549e+00 1.657831744175353395e+00 1.703399305251972251e+00 1.657831744175353395e+00 -4.059893514225596967e+00 1.655796677190225052e+00 1.703399305251972251e+00 1.655796677190225052e+00 -3.477932601282070380e+00
-2.100181869042332117e-01 1.445988646009864764e+00 1.089004608058196988e+00 1.445988646009864764e+00 -5.702681591076674827e+00 1.150378758118662637e+00 1.089004608058196988e+00 1.150378758118662637e+00 -7.396717039783444747e+00
-8.956089004381027507e+00 1.299555028194995021e+00 4.885338930113129474e-01 1.299555028194995021e+00 -8.674847721390083422e+00 1.085504390281638365e+00 4.885338930113129474e-01 1.085504390281638365e+00 -1.139494586743063032e+01
-1.113395348989486244e+01 1.026092316796017201e+00 1.956587226747049935e-01 1.026092316796017201e+00 -1.140772514106005353e+01 9.083795888902241877e-01 1.956587226747049935e-01 9.083795888902241877e-01 -1.121554238425545691e+01
-7.311736903502858098e+00 6.244421063680898332e-01 3.136986451546103227e-01 6.244421063680898332e-01 -1.089005994550490897e+01 5.604166481479717632e-01 3.136986451546103227e-01 5.604166481479717632e-01 -9.051502598092348251e+00
-5.081125219066815468e-01 4.741370495504134142e-01 6.918151582097173402e-02 4.741370495504134142e-01 -7.312025463431847783e+00 5.496488433486154124e-01 6.918151582097173402e-02 5.496488433486154124e-01 -5.030854551066311409e+00
3.199500606768158395e+00 6.087457872643383672e-01 5.811808133022773326e-01 6.087457872643383672e-01 -2.900714730103805206e+00 8.363394994511683667e-01 5.811808133022773326e-01 8.363394994511683667e-01 -3.098697922539755956e-01
2.020217129710423443e+00 9.064587914745606545e-01 2.056114365216331397e+00 9.064587914745606545e-01 1.561154372437819848e+00 7.518788861267968748e-01 2.056114365216331397e+00 7.518788861267968748e-01 2.694429877770017523e+00
1.720374101126866950e+00 1.449176633753958665e+00 2.568894740916285446e+00 1.449176633753958665e+00 4.848010181556747789e+00 6.877502379109220465e-01 2.568894740916285446e+00 6.877502379109220465e-01 6.216973073270575689e+00
2.187992360727381569e-01 1.786131077138056744e+00 1.892761784450858853e+00 1.786131077138056744e+00 4.169610813397363280e+00 1.322527604518447530e+00 1.892761784450858853e+00 1.322527604518447530e+00 4.593911888760743523e+00
-1.723425036212388184e+00 1.453319818407462050e+00 1.088994068876915300e+00 1.453319818407462050e+00 1.143924108607680346e+00 1.711441351386727927e+00 1.088994068876915300e+00 1.711441351386727927e+00 1.989530937679539591e+00
-1.192914826285869534e+00 7.131080953008895884e-01 9.733038425661959536e-01 7.131080953008895884e-01 -1.841923229002290219e-01 1.200003053114751861e+00 9.733038425661959536e-01 1.200003053114751861e+00 5.774622483186493405e+00
-1.123689024790401447e+00 -4.157403082932271954e-02 1.537662321309414271e+00 -4.157403082932271954e-02 -2.858408066377589485e+00 9.488690055285534108e-02 1.537662321309414271e+00 9.488690055285534108e-02 1.086012099952710663e+01
-2.503732338335014518e+00 -3.819177419320469724e-01 2.254908737620983317e+00 -3.819177419320469724e-01 -5.012872474359285846e+00 -3.531537180269257448e-01 2.254908737620983317e+00 -3.531537180269257448e-01 1.306248193935581092e+01
-4.410898447855081450e+00 -9.328911826807531060e-01 1.969323795837251145e+00 -9.328911826807531060e-01 -6.805172101616395075e+00 -1.201687587267082774e-01 1.969323795837251145e+00 -1.201687587267082774e-01 4.319609729765335970e+00
-5.527897721153432364e+00 -1.653459026178320190e+00 1.459769721490254968e+00 -1.653459026178320190e+00 -6.306915864957248097e+00 2.623385135327224171e-01 1.459769721490254968e+00 2.623385135327224171e-01 -5.412921905987758464e+00
-3.132161912193801800e+00 -1.415394591434082860e+00 1.027638131850175052e+00 -1.415394591434082860e+00 -3.808432983357454393e+00 3.343704622966148232e-01 1.027638131850175052e+00 3.343704622966148232e-01 -8.571794268853306420e+00
-3.423587614975647675e+00 -5.534700477199151480e-01 5.598950790138226274e-01 -5.534700477199151480e-01 -4.650486366190432541e+00 1.161142310068229017e-01 5.598950790138226274e-01 1.161142310068229017e-01 -7.740880573051950542e+00
-6.819228420152393610e+00 7.667703125155775346e-02 -7.032075696194278747e-02 7.667703125155775346e-02 -7.425622690336122211e+00 -4.461006631611045270e-01 -7.032075696194278747e-02 -4.461006631611045270e-01 -8.050261121207983095e+00
-6.867056393605088793e+00 1.663848019415199164e-01 -5.827120879859470914e-01 1.663848019415199164e-01 -7.283037100823727350e+00 -6.448258365429663241e-01 -5.827120879859470914e-01 -6.448258365429663241e-01 -5.264266138951257723e+00
-4.385463062442621407e+00 -1.363222514226088977e-01 -6.477418134797043869e-01 -1.363222514226088977e-01 -1.990710852131110542e+00 -4.266623118912741264e-01 -6.477418134797043869e-01 -4.266623118912741264e-01 1.060700785936835366e+00
-2.118169345112963509e+00 -4.648972520802286956e-01 -1.794733406465075509e-01 -4.648972520802286956e-01 3.578412406703172621e+00 -1.749586557379652907e-01 -1.794733406465075509e-01 -1.749586557379652907e-01 3.238160645042642116e+00
-2.231622340667122728e+00 1.092654492982420983e-01 5.173303358948111441e-01 1.092654492982420983e-01 3.219844182604734595e+00 1.333805080016837175e-01 5.173303358948111441e-01 1.333805080016837175e-01 5.341440454745287170e+00
-2.491261126272772408e+00 1.103633804601719115e+00 1.087695132608959225e+00 1.103633804601719115e+00 -5.683283696234411320e-01 6.595314678929011798e-01 1.087695132608959225e+00 6.595314678929011798e-01 5.787740000127517881e+00
-7.037328168404346496e-01 1.069760788028781828e+00 1.139164852221125956e+00 1.069760788028781828e+00 -2.946206947271319709e+00 8.490317707543255654e-01 1.139164852221125956e+00 8.490317707543255654e-01 4.592494966848652105e+00
5.086338844794196845e+00 6.306783550916220671e-01 4.497818893657469785e-01 6.306783550916220671e-01 1.533247487965578415e+00 3.132702811303026968e-01 4.497818893657469785e-01 3.132702811303026968e-01 8.106902673141229698e+00
1.060777519688848791e+01 2.243517255798492260e-01 -6.529682827885016638e-02 2.243517255798492260e-01 5.495672387023439853e+00 -5.294438602902320351e-03 -6.529682827885016638e-02 -5.294438602902320351e-03 1.343335416278383931e+01
8.464969288036188644e+00 1.240274098370082040e-01 -9.542528474570757258e-01 1.240274098370082040e-01 3.788713615482108832e+00 -8.580431648595165939e-02 -9.542528474570757258e-01 -8.580431648595165939e-02 1.319053776912902975e+01
-1.384551912169224852e-01 -4.046176946423670762e-01 -1.912943268761617466e+00 -4.046176946423670762e-01 -2.705255483971781505e+00 -1.394287125093628295e-03 -1.912943268761617466e+00 -1.394287125093628295e-03 1.182767368968744570e+00
-6.650632382228775619e+00 -1.014052105795527847e+00 -1.911244280533456630e+00 -1.014052105795527847e+00 -6.995931748883949197e+00 1.834621736104061762e-01 -1.911244280533456630e+00 1.834621736104061762e-01 -8.429949511126570982e+00
-9.186758267920142274e+00 -8.078657352076065168e-01 -1.419197532681671703e+00 -8.078657352076065168e-01 -7.670986544395972828e+00 5.343016808483784796e-01 -1.419197532681671703e+00 5.343016808483784796e-01 -1.439334245863349437e+01
-7.827541970385454739e+00 -9.167701624752628842e-01 -6.533208234651466384e-01 -9.167701624752628842e-01 -4.399464336027311795e+00 2.518563778653259977e-01 -6.533208234651466384e-01 2.518563778653259977e-01 -1.451718203409249597e+01
-6.296215157562062181e+00 -7.432683510742112976e-01 9.519247017300370983e-03 -7.432683510742112976e-01 -9.258137785571928902e+00 2.120663810375194303e-01 9.519247017300370983e-03 2.120663810375194303e-01 -9.988662316715107181e+00
-6.718432351012484816e+00 2.443986641645800040e-01 -9.620081425735617364e-02 2.443986641645800040e-01 -1.359589387594021304e+01 1.183646839482874469e-01 -9.620081425735617364e-02 1.183646839482874469e-01 -6.249490058079246069e+00
-9.212689751214444556e+00 4.059867187179190817e-01 1.805711641949442614e-01 4.059867187179190817e-01 -1.390426507455531713e+01 -1.071493149734023681e-01 1.805711641949442614e-01 -1.071493149734023681e-01 -9.510973376964239279e+00
-8.227406135243965579e+00 2.652857324039500919e-01 5.626776096941354943e-02 2.652857324039500919e-01 -1.188637299782345380e+01 1.917151295757702489e-01 5.626776096941354943e-02 1.917151295757702489e-01 -1.082543981122043952e+01
-3.297998185072246180e+00 -6.788908633135138926e-01 -1.501584897047943401e-01 -6.788908633135138926e-01 -6.712744243339222372e+00 9.505816143068344104e-01 -1.501584897047943401e-01 9.505816143068344104e-01 -3.949903786308009757e+00
4.575266100564134852e+00 -2.045742222422484158e+00 3.204233452457064257e-01 -2.045742222422484158e+00 -9.978135159045185831e-02 1.610853300495459495e+00 3.204233452457064257e-01 1.610853300495459495e+00 6.609994706172661161e+00
6.178237867619669643e+00 -2.157213769054174612e+00 9.946836713666811214e-01 -2.157213769054174612e+00 2.633289680263876331e+00 7.775801158216932851e-01 9.946836713666811214e-01 7.775801158216932851e-01 1.128851281458302758e+01
3.262836570526529645e+00 -1.690699201671186147e+00 1.229141591266770916e+00 -1.690699201671186147e+00 2.516235471681955160e-01 -4.337921882743679403e-01 1.229141591266770916e+00 -4.337921882743679403e-01 1.289369593627343846e+01
4.299372861232910736e+00 -1.877967315126368053e+00 8.229733888690295984e-01 -1.877967315126368053e+00 -1.126913037864061939e+00 -4.741049820753418520e-01 8.229733888690295984e-01 -4.741049820753418520e-01 1.007685543121723448e+01
8.647770348884705527e+00 -2.156444211020285273e+00 3.457640856458453760e-01 -2.156444211020285273e+00 1.414919382462708652e+00 2.187727891164592819e-01 3.457640856458453760e-01 2.187727891164592819e-01 9.326445563156450902e+00
1.096100031950367182e+01 -2.444094988033831406e+00 8.941173663355610479e-01 -2.444094988033831406e+00 5.012136684129902875e+00 8.577921820439887712e-01 8.941173663355610479e-01 8.577921820439887712e-01 8.432280635510830180e+00
5.760413841427946657e+00 -2.606546079590661869e+00 1.005789387358363429e+00 -2.606546079590661869e+00 6.552798549154965180e+00 1.289069003438664485e+00 1.005789387358363429e+00 1.289069003438664485e+00 5.419841690564895842e+00
-1.217855500796157786e+00 -1.203609979024507837e+00 8.803024214131325298e-01 -1.203609979024507837e+00 8.862197640405745647e-01 8.358246905876066668e-01 8.803024214131325298e-01 8.358246905876066668e-01 -1.652509788467235730e+00
-5.445051727843914335e+00 -5.916568800283124041e-01 1.050653457096441423e+00 -5.916568800283124041e-01 -6.073677247675759006e+00 3.706440901958784062e-01 1.050653457096441423e+00 3.706440901958784062e-01 -6.454594944241878629e+00
-2.625366638842749012e+00 -4.735856213602549492e-01 3.051846487347617543e-01 -4.735856213602549492e-01 -1.005581339008290875e+01 1.863087989478841577e-01 3.051846487347617543e-01 1.863087989478841577e-01 -6.681373303849859724e+00
8.926887021888124663e-03 -2.477568696026487965e-02 -7.104865377760012368e-01 -2.477568696026487965e-02 -9.390280975322346180e+00 1.700675185132367595e-01 -7.104865377760012368e-01 1.700675185132367595e-01 -6.969230341099621029e+00
-6.084161776880603334e+00 6.199746418354808997e-01 -1.466124730533285181e+00 6.199746418354808997e-01 -1.246467132279290269e+01 -2.809339645648621375e-01 -1.466124730533285181e+00 -2.809339645648621375e-01 -9.488194089812362009e+00
-1.091433392438696259e+01 5.867896080170516004e-01 -1.248403877120108030e+00 5.867896080170516004e-01 -1.368715412520101182e+01 -9.984798199456342838e-01 -1.248403877120108030e+00 -9.984798199456342838e-01 -9.480459788603308624e+00
-1.038831930088258382e+01 4.907952026941794776e-01 -1.203916625054991085e+00 4.907952026941794776e-01 -7.792518640920086170e+00 -1.423964811365826311e+00 -1.203916625054991085e+00 -1.423964811365826311e+00 -6.378858465103848019e+00
-5.897462853294547891e+00 1.732922518178211524e-01 -8.028202490831551907e-01 1.732922518178211524e-01 -1.085226677316316835e+00 -1.199210788124981386e+00 -8.028202490831551907e-01 -1.199210788124981386e+00 9.127601213365308386e-01
6.682973725186522329e-02 -8.105357265275160428e-01 -7.398956611332162259e-02 -8.105357265275160428e-01 6.528453562443728431e-02 -3.102535117030987832e-01 -7.398956611332162259e-02 -3.102535117030987832e-01 2.867388806310680049e+00
-2.095039633985306349e+00 -8.076670056797382591e-01 6.019941508782767903e-01 -8.076670056797382591e-01 -2.084443594507436437e+00 1.073533940035430873e-01 6.019941508782767903e-01 1.073533940035430873e-01 -2.966012173124651929e-01
-3.792809391375518313e+00 -2.862954360779596669e-02 6.372538151957093389e-01 -2.862954360779596669e-02 -1.093683845970258250e+00 3.432985877908649175e-01 6.372538151957093389e-01 3.432985877908649175e-01 -2.618079440949862668e+00
-1.336205447650671063e+00 2.936862121882691246e-01 5.391669498724559473e-01 2.936862121882691246e-01 4.102730468356996063e+00 1.023754791285867195e-02 5.391669498724559473e-01 1.023754791285867195e-02 1.827115130995757175e+00
1.642890325970948417e+00 3.890844993605909186e-01 4.520941393376702866e-01 3.890844993605909186e-01 6.264457574513388138e+00 7.218875647637892912e-02 4.520941393376702866e-01 7.218875647637892912e-02 4.819048616567418009e+00
4.501260931711204449e+00 8.542019197736171465e-01 -1.813912582486990055e-02 8.542019197736171465e-01 2.053309037167795559e+00 -1.436713123795948788e-01 -1.813912582486990055e-02 -1.436713123795948788e-01 1.191750556394592486e+01