8.166196297727983833e+00 -0.000000000000000000e+00 0.000000000000000000e+00 6.872960437170035075e-02 8.110007905742287804e+00 0.000000000000000000e+00 8.349951935162198968e-03 3.897977562067336116e-02 8.165486318046841774e+00
8.160028795841983040e+00 -0.000000000000000000e+00 0.000000000000000000e+00 6.872960437170035075e-02 8.103882840016011002e+00 0.000000000000000000e+00 8.349951935162198968e-03 3.897977562067336116e-02 8.159319352370751233e+00
8.146714831678169233e+00 -0.000000000000000000e+00 0.000000000000000000e+00 6.872960437170035075e-02 8.090660484013874054e+00 0.000000000000000000e+00 8.349951935162198968e-03 3.897977562067336116e-02 8.146006545740275939e+00
8.127904568724707346e+00 -0.000000000000000000e+00 0.000000000000000000e+00 6.872960437170035075e-02 8.071979647098396882e+00 0.000000000000000000e+00 8.349951935162198968e-03 3.897977562067336116e-02 8.127197918175399494e+00
8.105795082601568780e+00 -0.000000000000000000e+00 0.000000000000000000e+00 6.872960437170035075e-02 8.050022287672570442e+00 0.000000000000000000e+00 8.349951935162198968e-03 3.897977562067336116e-02 8.105090354279194997e+00
8.084606168769335355e+00 -0.000000000000000000e+00 0.000000000000000000e+00 6.872960437170035075e-02 8.028979166441112980e+00 0.000000000000000000e+00 8.349951935162198968e-03 3.897977562067336116e-02 8.083903282639360199e+00
8.069188910929714353e+00 -0.000000000000000000e+00 0.000000000000000000e+00 6.872960437170035075e-02 8.013667988701861589e+00 0.000000000000000000e+00 8.349951935162198968e-03 3.897977562067336116e-02 8.068487365196023831e+00
8.061540212833923746e+00 -0.000000000000000000e+00 0.000000000000000000e+00 6.872960437170035075e-02 8.006071918296131074e+00 0.000000000000000000e+00 8.349951935162198968e-03 3.897977562067336116e-02 8.060839332087404330e+00
8.060749857606447577e+00 -0.000000000000000000e+00 0.000000000000000000e+00 6.872960437170035075e-02 8.005287001193350349e+00 0.000000000000000000e+00 8.349951935162198968e-03 3.897977562067336116e-02 8.060049045575532034e+00
8.065321733945351568e+00 -0.000000000000000000e+00 0.000000000000000000e+00 6.872960437170035075e-02 8.009827420245331453e+00 0.000000000000000000e+00 8.349951935162198968e-03 3.897977562067336116e-02 8.064620524428724124e+00
8.074392907004945386e+00 -0.000000000000000000e+00 0.000000000000000000e+00 6.872960437170035075e-02 8.018836178123208924e+00 0.000000000000000000e+00 8.349951935162198968e-03 3.897977562067336116e-02 8.073690908828858426e+00
8.088805045144340511e+00 -0.000000000000000000e+00 0.000000000000000000e+00 6.872960437170035075e-02 8.033149151995420567e+00 0.000000000000000000e+00 8.349951935162198968e-03 3.897977562067336116e-02 8.088101793958465180e+00
8.110178938933771065e+00 -0.000000000000000000e+00 0.000000000000000000e+00 6.872960437170035075e-02 8.054375980409401947e+00 0.000000000000000000e+00 8.349951935162198968e-03 3.897977562067336116e-02 8.109473829473593298e+00
8.137400413328764515e+00 -0.000000000000000000e+00 0.000000000000000000e+00 6.872960437170035075e-02 8.081410154521556422e+00 0.000000000000000000e+00 8.349951935162198968e-03 3.897977562067336116e-02 8.136692937198212405e+00
8.165354557411294678e+00 -0.000000000000000000e+00 0.000000000000000000e+00 6.872960437170035075e-02 8.109171957109261086e+00 0.000000000000000000e+00 8.349951935162198968e-03 3.897977562067336116e-02 8.164644650911730750e+00
8.189005815008533418e+00 -0.000000000000000000e+00 0.000000000000000000e+00 6.872960437170035075e-02 8.132660479685251076e+00 0.000000000000000000e+00 8.349951935162198968e-03 3.897977562067336116e-02 8.188293852237805481e+00
8.205425844981895978e+00 -0.000000000000000000e+00 0.000000000000000000e+00 6.872960437170035075e-02 8.148967529875960736e+00 0.000000000000000000e+00 8.349951935162198968e-03 3.897977562067336116e-02 8.204712454633385832e+00
8.213416599771706572e+00 -0.000000000000000000e+00 0.000000000000000000e+00 6.872960437170035075e-02 8.156903303418257423e+00 0.000000000000000000e+00 8.349951935162198968e-03 3.897977562067336116e-02 8.212702514696195166e+00
8.213196376957375477e+00 -0.000000000000000000e+00 0.000000000000000000e+00 6.872960437170035075e-02 8.156684595870205001e+00 0.000000000000000000e+00 8.349951935162198968e-03 3.897977562067336116e-02 8.212482311027752502e+00
8.206639983328949839e+00 -0.000000000000000000e+00 0.000000000000000000e+00 6.872960437170035075e-02 8.150173314213102316e+00 0.000000000000000000e+00 8.349951935162198968e-03 3.897977562067336116e-02 8.205926487421047355e+00
8.196556878253341338e+00 -0.000000000000000000e+00 0.000000000000000000e+00 6.872960437170035075e-02 8.140159587027131494e+00 0.000000000000000000e+00 8.349951935162198968e-03 3.897977562067336116e-02 8.195844258983390418e+00
8.185331149543015883e+00 -0.000000000000000000e+00 0.000000000000000000e+00 6.872960437170035075e-02 8.129011098151190495e+00 0.000000000000000000e+00 8.349951935162198968e-03 3.897977562067336116e-02 8.184619506252447607e+00
8.174017646133947324e+00 -0.000000000000000000e+00 0.000000000000000000e+00 6.872960437170035075e-02 8.117775438519030828e+00 0.000000000000000000e+00 8.349951935162198968e-03 3.897977562067336116e-02 8.173306986454718981e+00
8.162190353712404089e+00 -0.000000000000000000e+00 0.000000000000000000e+00 6.872960437170035075e-02 8.106029525054045948e+00 0.000000000000000000e+00 8.349951935162198968e-03 3.897977562067336116e-02 8.161480722312257186e+00
8.150362894882817955e+00 -0.000000000000000000e+00 0.000000000000000000e+00 6.872960437170035075e-02 8.094283446328011777e+00 0.000000000000000000e+00 8.349951935162198968e-03 3.897977562067336116e-02 8.149654291777750359e+00
8.140166976318596426e+00 -0.000000000000000000e+00 0.000000000000000000e+00 6.872960437170035075e-02 8.084157681877961465e+00 0.000000000000000000e+00 8.349951935162198968e-03 3.897977562067336116e-02 8.139459259660425161e+00
8.133468970053337799e+00 -0.000000000000000000e+00 0.000000000000000000e+00 6.872960437170035075e-02 8.077505761964417275e+00 0.000000000000000000e+00 8.349951935162198968e-03 3.897977562067336116e-02 8.132761835727816191e+00
8.131593420923563187e+00 -0.000000000000000000e+00 0.000000000000000000e+00 6.872960437170035075e-02 8.075643117753356748e+00 0.000000000000000000e+00 8.349951935162198968e-03 3.897977562067336116e-02 8.130886449661101523e+00
8.134187048624861305e+00 -0.000000000000000000e+00 0.000000000000000000e+00 6.872960437170035075e-02 8.078218899720379653e+00 0.000000000000000000e+00 8.349951935162198968e-03 3.897977562067336116e-02 8.133479851868697708e+00
8.139143786892383048e+00 -0.000000000000000000e+00 0.000000000000000000e+00 6.872960437170035075e-02 8.083141532617222680e+00 0.000000000000000000e+00 8.349951935162198968e-03 3.897977562067336116e-02 8.138436159191700270e+00
8.145034720414395579e+00 -0.000000000000000000e+00 0.000000000000000000e+00 6.872960437170035075e-02 8.088991932937556584e+00 0.000000000000000000e+00 8.349951935162198968e-03 3.897977562067336116e-02 8.144326580547661010e+00
8.150785861786093989e+00 -0.000000000000000000e+00 0.000000000000000000e+00 6.872960437170035075e-02 8.094703502962039110e+00 0.000000000000000000e+00 8.349951935162198968e-03 3.897977562067336116e-02 8.150077221908237135e+00
8.155403004615429552e+00 -0.000000000000000000e+00 0.000000000000000000e+00 6.872960437170035075e-02 8.099288877043244739e+00 0.000000000000000000e+00 8.349951935162198968e-03 3.897977562067336116e-02 8.154693963316884009e+00
8.158290722050859145e+00 -0.000000000000000000e+00 0.000000000000000000e+00 6.872960437170035075e-02 8.102156725228047307e+00 0.000000000000000000e+00 8.349951935162198968e-03 3.897977562067336116e-02 8.157581429689757968e+00
8.158900676372777383e+00 -0.000000000000000000e+00 0.000000000000000000e+00 6.872960437170035075e-02 8.102762482694124913e+00 0.000000000000000000e+00 8.349951935162198968e-03 3.897977562067336116e-02 8.158191330981983569e+00
8.156700918030248104e+00 -0.000000000000000000e+00 0.000000000000000000e+00 6.872960437170035075e-02 8.100577860024472443e+00 0.000000000000000000e+00 8.349951935162198968e-03 3.897977562067336116e-02 8.155991763889353763e+00
8.151867108189113864e+00 -0.000000000000000000e+00 0.000000000000000000e+00 6.872960437170035075e-02 8.095777309732884675e+00 0.000000000000000000e+00 8.349951935162198968e-03 3.897977562067336116e-02 8.151158374305799370e+00
8.145140702774329000e+00 -0.000000000000000000e+00 0.000000000000000000e+00 6.872960437170035075e-02 8.089097186073686885e+00 0.000000000000000000e+00 8.349951935162198968e-03 3.897977562067336116e-02 8.144432553693647492e+00
8.136268696102272102e+00 -0.000000000000000000e+00 0.000000000000000000e+00 6.872960437170035075e-02 8.080286224197237743e+00 0.000000000000000000e+00 8.349951935162198968e-03 3.897977562067336116e-02 8.135561318364150196e+00
8.125557544305888058e+00 -0.000000000000000000e+00 0.000000000000000000e+00 6.872960437170035075e-02 8.069648771632618178e+00 0.000000000000000000e+00 8.349951935162198968e-03 3.897977562067336116e-02 8.124851097809404621e+00
8.115044193818897966e+00 -0.000000000000000000e+00 0.000000000000000000e+00 6.872960437170035075e-02 8.059207759385229153e+00 0.000000000000000000e+00 8.349951935162198968e-03 3.897977562067336116e-02 8.114338661367154870e+00
8.106079232826912673e+00 -0.000000000000000000e+00 0.000000000000000000e+00 6.872960437170035075e-02 8.050304482772169479e+00 0.000000000000000000e+00 8.349951935162198968e-03 3.897977562067336116e-02 8.105374479800683929e+00
8.099292183508213228e+00 -0.000000000000000000e+00 0.000000000000000000e+00 6.872960437170035075e-02 8.043564132475657047e+00 0.000000000000000000e+00 8.349951935162198968e-03 3.897977562067336116e-02 8.098588020556586997e+00
8.095137668958848565e+00 -0.000000000000000000e+00 0.000000000000000000e+00 6.872960437170035075e-02 8.039438203510746561e+00 0.000000000000000000e+00 8.349951935162198968e-03 3.897977562067336116e-02 8.094433867207143862e+00
8.093396038975196660e+00 -0.000000000000000000e+00 0.000000000000000000e+00 6.872960437170035075e-02 8.037708556999112020e+00 0.000000000000000000e+00 8.349951935162198968e-03 3.897977562067336116e-02 8.092692388641619772e+00
8.093733121967844113e+00 -0.000000000000000000e+00 0.000000000000000000e+00 6.872960437170035075e-02 8.038043320656111490e+00 0.000000000000000000e+00 8.349951935162198968e-03 3.897977562067336116e-02 8.093029442328438350e+00
8.096507264251046720e+00 -0.000000000000000000e+00 0.000000000000000000e+00 6.872960437170035075e-02 8.040798375155189248e+00 0.000000000000000000e+00 8.349951935162198968e-03 3.897977562067336116e-02 8.095803343424027076e+00
8.101507531285003338e+00 -0.000000000000000000e+00 0.000000000000000000e+00 6.872960437170035075e-02 8.045764237314189771e+00 0.000000000000000000e+00 8.349951935162198968e-03 3.897977562067336116e-02 8.100803175728486849e+00
8.107457997151330531e+00 -0.000000000000000000e+00 0.000000000000000000e+00 6.872960437170035075e-02 8.051673760360195331e+00 0.000000000000000000e+00 8.349951935162198968e-03 3.897977562067336116e-02 8.106753124253790688e+00
8.113043181002330684e+00 -0.000000000000000000e+00 0.000000000000000000e+00 6.872960437170035075e-02 8.057220514753407059e+00 0.000000000000000000e+00 8.349951935162198968e-03 3.897977562067336116e-02 8.112337822521585196e+00
8.117803234232031429e+00 -0.000000000000000000e+00 0.000000000000000000e+00 6.872960437170035075e-02 8.061947815924638050e+00 0.000000000000000000e+00 8.349951935162198968e-03 3.897977562067336116e-02 8.117097461906668698e+00
8.121615994216636381e+00 -0.000000000000000000e+00 0.000000000000000000e+00 6.872960437170035075e-02 8.065734341803254992e+00 0.000000000000000000e+00 8.349951935162198968e-03 3.897977562067336116e-02 8.120909890404181652e+00
8.124016452066877392e+00 -0.000000000000000000e+00 0.000000000000000000e+00 6.872960437170035075e-02 8.068118283044571015e+00 0.000000000000000000e+00 8.349951935162198968e-03 3.897977562067336116e-02 8.123310139555625753e+00
8.124852761230830112e+00 -0.000000000000000000e+00 0.000000000000000000e+00 6.872960437170035075e-02 8.068948837893646697e+00 0.000000000000000000e+00 8.349951935162198968e-03 3.897977562067336116e-02 8.124146376009996118e+00
8.124471565976104870e+00 -0.000000000000000000e+00 0.000000000000000000e+00 6.872960437170035075e-02 8.068570265494823701e+00 0.000000000000000000e+00 8.349951935162198968e-03 3.897977562067336116e-02 8.123765213897080173e+00
8.123194897514993684e+00 -0.000000000000000000e+00 0.000000000000000000e+00 6.872960437170035075e-02 8.067302381288147473e+00 0.000000000000000000e+00 8.349951935162198968e-03 3.897977562067336116e-02 8.122488656431329446e+00
8.120974061863792670e+00 -0.000000000000000000e+00 0.000000000000000000e+00 6.872960437170035075e-02 8.065096826334986702e+00 0.000000000000000000e+00 8.349951935162198968e-03 3.897977562067336116e-02 8.120268013862016687e+00
8.118139918827973034e+00 -0.000000000000000000e+00 0.000000000000000000e+00 6.872960437170035075e-02 8.062282183924914136e+00 0.000000000000000000e+00 8.349951935162198968e-03 3.897977562067336116e-02 8.117434117229779034e+00
8.114978162000996420e+00 -0.000000000000000000e+00 0.000000000000000000e+00 6.872960437170035075e-02 8.059142181906711500e+00 0.000000000000000000e+00 8.349951935162198968e-03 3.897977562067336116e-02 8.114272635290221913e+00
8.112046538982301769e+00 -0.000000000000000000e+00 0.000000000000000000e+00 6.872960437170035075e-02 8.056230730235904858e+00 0.000000000000000000e+00 8.349951935162198968e-03 3.897977562067336116e-02 8.111341267151058076e+00
8.110043327288391168e+00 -0.000000000000000000e+00 0.000000000000000000e+00 6.872960437170035075e-02 8.054241301854654367e+00 0.000000000000000000e+00 8.349951935162198968e-03 3.897977562067336116e-02 8.109338229619146077e+00
8.109272180264346375e+00 -0.000000000000000000e+00 0.000000000000000000e+00 6.872960437170035075e-02 8.053475460791066354e+00 0.000000000000000000e+00 8.349951935162198968e-03 3.897977562067336116e-02 8.108567149639714700e+00
8.110208538802384126e+00 -0.000000000000000000e+00 0.000000000000000000e+00 6.872960437170035075e-02 8.054405376613191336e+00 0.000000000000000000e+00 8.349951935162198968e-03 3.897977562067336116e-02 8.109503426768220891e+00
8.113530112922404669e+00 -0.000000000000000000e+00 0.000000000000000000e+00 6.872960437170035075e-02 8.057704096284766138e+00 0.000000000000000000e+00 8.349951935162198968e-03 3.897977562067336116e-02 8.112824712106903036e+00
8.119960114957374131e+00 -0.000000000000000000e+00 0.000000000000000000e+00 6.872960437170035075e-02 8.064089856000411061e+00 0.000000000000000000e+00 8.349951935162198968e-03 3.897977562067336116e-02 8.119254155110093407e+00
8.128563690796601904e+00 -0.000000000000000000e+00 0.000000000000000000e+00 6.872960437170035075e-02 8.072634234009397503e+00 0.000000000000000000e+00 8.349951935162198968e-03 3.897977562067336116e-02 8.127856982942624597e+00
8.138626113260267303e+00 -0.000000000000000000e+00 0.000000000000000000e+00 6.872960437170035075e-02 8.082627420893603087e+00 0.000000000000000000e+00 8.349951935162198968e-03 3.897977562067336116e-02 8.137918530566327746e+00
8.150608134743142941e+00 -0.000000000000000000e+00 0.000000000000000000e+00 6.872960437170035075e-02 8.094526998788051486e+00 0.000000000000000000e+00 8.349951935162198968e-03 3.897977562067336116e-02 8.149899510316199525e+00
8.165357064168864198e+00 -0.000000000000000000e+00 0.000000000000000000e+00 6.872960437170035075e-02 8.109174446618929721e+00 0.000000000000000000e+00 8.349951935162198968e-03 3.897977562067336116e-02 8.164647157451300430e+00
8.181651177098045125e+00 -0.000000000000000000e+00 0.000000000000000000e+00 6.872960437170035075e-02 8.125356446151467793e+00 0.000000000000000000e+00 8.349951935162198968e-03 3.897977562067336116e-02 8.180939853748634860e+00
8.195440812315752055e+00 -0.000000000000000000e+00 0.000000000000000000e+00 6.872960437170035075e-02 8.139051200301340216e+00 0.000000000000000000e+00 8.349951935162198968e-03 3.897977562067336116e-02 8.194728290078243660e+00
8.204305849479927915e+00 -0.000000000000000000e+00 0.000000000000000000e+00 6.872960437170035075e-02 8.147855240623632866e+00 0.000000000000000000e+00 8.349951935162198968e-03 3.897977562067336116e-02 8.203592556503858546e+00
8.208333081704966006e+00 -0.000000000000000000e+00 0.000000000000000000e+00 6.872960437170035075e-02 8.151854763044177332e+00 0.000000000000000000e+00 8.349951935162198968e-03 3.897977562067336116e-02 8.207619438596911010e+00
8.208821117141686940e+00 -0.000000000000000000e+00 0.000000000000000000e+00 6.872960437170035075e-02 8.152339440500227852e+00 0.000000000000000000e+00 8.349951935162198968e-03 3.897977562067336116e-02 8.208107431602876147e+00
8.206540533362415957e+00 -0.000000000000000000e+00 0.000000000000000000e+00 6.872960437170035075e-02 8.150074548523628337e+00 0.000000000000000000e+00 8.349951935162198968e-03 3.897977562067336116e-02 8.205827046101461519e+00
8.202052843966907147e+00 -0.000000000000000000e+00 0.000000000000000000e+00 6.872960437170035075e-02 8.145617737157376581e+00 0.000000000000000000e+00 8.349951935162198968e-03 3.897977562067336116e-02 8.201339746870708325e+00
8.196559305597368450e+00 -0.000000000000000000e+00 0.000000000000000000e+00 6.872960437170035075e-02 8.140161997669254745e+00 0.000000000000000000e+00 8.349951935162198968e-03 3.897977562067336116e-02 8.195846686116420088e+00
8.191577924303699021e+00 -0.000000000000000000e+00 0.000000000000000000e+00 6.872960437170035075e-02 8.135214891305288631e+00 0.000000000000000000e+00 8.349951935162198968e-03 3.897977562067336116e-02 8.190865737910257849e+00
8.189786767345136553e+00 -0.000000000000000000e+00 0.000000000000000000e+00 6.872960437170035075e-02 8.133436058595785667e+00 0.000000000000000000e+00 8.349951935162198968e-03 3.897977562067336116e-02 8.189074736677799393e+00
8.192472306275366378e+00 -0.000000000000000000e+00 0.000000000000000000e+00 6.872960437170035075e-02 8.136103119385381888e+00 0.000000000000000000e+00 8.349951935162198968e-03 3.897977562067336116e-02 8.191760042123371832e+00
8.196982573302911135e+00 -0.000000000000000000e+00 0.000000000000000000e+00 6.872960437170035075e-02 8.140582353035563656e+00 0.000000000000000000e+00 8.349951935162198968e-03 3.897977562067336116e-02 8.196269917022174667e+00
8.198726978268590315e+00 -0.000000000000000000e+00 0.000000000000000000e+00 6.872960437170035075e-02 8.142314755436332874e+00 0.000000000000000000e+00 8.349951935162198968e-03 3.897977562067336116e-02 8.198014170327727612e+00
8.195953131864685659e+00 -0.000000000000000000e+00 0.000000000000000000e+00 6.872960437170035075e-02 8.139559994779563823e+00 0.000000000000000000e+00 8.349951935162198968e-03 3.897977562067336116e-02 8.195240565085434525e+00
8.188606011627921788e+00 -0.000000000000000000e+00 0.000000000000000000e+00 6.872960437170035075e-02 8.132263427193805683e+00 0.000000000000000000e+00 8.349951935162198968e-03 3.897977562067336116e-02 8.187894083615994134e+00
8.177240829094333918e+00 -0.000000000000000000e+00 0.000000000000000000e+00 6.872960437170035075e-02 8.120976444022078411e+00 0.000000000000000000e+00 8.349951935162198968e-03 3.897977562067336116e-02 8.176529889186719302e+00
8.164198903988584277e+00 -0.000000000000000000e+00 0.000000000000000000e+00 6.872960437170035075e-02 8.108024255284776771e+00 0.000000000000000000e+00 8.349951935162198968e-03 3.897977562067336116e-02 8.163489097962440155e+00
8.150872005173226853e+00 -0.000000000000000000e+00 0.000000000000000000e+00 6.872960437170035075e-02 8.094789053629583009e+00 0.000000000000000000e+00 8.349951935162198968e-03 3.897977562067336116e-02 8.150163357805414677e+00
8.137093979797690224e+00 -0.000000000000000000e+00 0.000000000000000000e+00 6.872960437170035075e-02 8.081105829440343058e+00 0.000000000000000000e+00 8.349951935162198968e-03 3.897977562067336116e-02 8.136386530308982401e+00
8.123453717447146616e+00 -0.000000000000000000e+00 0.000000000000000000e+00 6.872960437170035075e-02 8.067559420381554602e+00 0.000000000000000000e+00 8.349951935162198968e-03 3.897977562067336116e-02 8.122747453860613476e+00
8.112540347333791146e+00 -0.000000000000000000e+00 0.000000000000000000e+00 6.872960437170035075e-02 8.056721140885954924e+00 0.000000000000000000e+00 8.349951935162198968e-03 3.897977562067336116e-02 8.111835032570796855e+00
8.106652895394738323e+00 -0.000000000000000000e+00 0.000000000000000000e+00 6.872960437170035075e-02 8.050874198192717657e+00 0.000000000000000000e+00 8.349951935162198968e-03 3.897977562067336116e-02 8.105948092493797219e+00
8.105873922899739625e+00 -0.000000000000000000e+00 0.000000000000000000e+00 6.872960437170035075e-02 8.050100585501864359e+00 0.000000000000000000e+00 8.349951935162198968e-03 3.897977562067336116e-02 8.105169187723406665e+00
8.108564816246145668e+00 -0.000000000000000000e+00 0.000000000000000000e+00 6.872960437170035075e-02 8.052772963866850375e+00 0.000000000000000000e+00 8.349951935162198968e-03 3.897977562067336116e-02 8.107859847120161945e+00
8.112741107773153715e+00 -0.000000000000000000e+00 0.000000000000000000e+00 6.872960437170035075e-02 8.056920519971267680e+00 0.000000000000000000e+00 8.349951935162198968e-03 3.897977562067336116e-02 8.112035775555259676e+00
8.116758496840853709e+00 -0.000000000000000000e+00 0.000000000000000000e+00 6.872960437170035075e-02 8.060910266961082371e+00 0.000000000000000000e+00 8.349951935162198968e-03 3.897977562067336116e-02 8.116052815344970028e+00
8.120205302973998229e+00 -0.000000000000000000e+00 0.000000000000000000e+00 6.872960437170035075e-02 8.064333356973744316e+00 0.000000000000000000e+00 8.349951935162198968e-03 3.897977562067336116e-02 8.119499321808840264e+00
8.122553567874680525e+00 -0.000000000000000000e+00 0.000000000000000000e+00 6.872960437170035075e-02 8.066665464385431861e+00 0.000000000000000000e+00 8.349951935162198968e-03 3.897977562067336116e-02 8.121847382548695649e+00
8.123410298343079816e+00 -0.000000000000000000e+00 0.000000000000000000e+00 6.872960437170035075e-02 8.067516300027765652e+00 0.000000000000000000e+00 8.349951935162198968e-03 3.897977562067336116e-02 8.122704038531525228e+00
8.123528480267790286e+00 -0.000000000000000000e+00 0.000000000000000000e+00 6.872960437170035075e-02 8.067633668789156332e+00 0.000000000000000000e+00 8.349951935162198968e-03 3.897977562067336116e-02 8.122822210181293912e+00
8.123574718226629798e+00 -0.000000000000000000e+00 0.000000000000000000e+00 6.872960437170035075e-02 8.067679588601828655e+00 0.000000000000000000e+00 8.349951935162198968e-03 3.897977562067336116e-02 8.122868444120156184e+00
8.123317322839275434e+00 -0.000000000000000000e+00 0.000000000000000000e+00 6.872960437170035075e-02 8.067423964252277813e+00 0.000000000000000000e+00 8.349951935162198968e-03 3.897977562067336116e-02 8.122611071111673908e+00
8.122110947434535433e+00 -0.000000000000000000e+00 0.000000000000000000e+00 6.872960437170035075e-02 8.066225889442758756e+00 0.000000000000000000e+00 8.349951935162198968e-03 3.897977562067336116e-02 8.121404800590330098e+00
8.120427026102694512e+00 -0.000000000000000000e+00 0.000000000000000000e+00 6.872960437170035075e-02 8.064553554513221201e+00 0.000000000000000000e+00 8.349951935162198968e-03 3.897977562067336116e-02 8.119721025661645442e+00
8.118173510864606257e+00 -0.000000000000000000e+00 0.000000000000000000e+00 6.872960437170035075e-02 8.062315544828880576e+00 0.000000000000000000e+00 8.349951935162198968e-03 3.897977562067336116e-02 8.117467706346429779e+00
8.115885952158482297e+00 -0.000000000000000000e+00 0.000000000000000000e+00 6.872960437170035075e-02 8.060043725916152368e+00 0.000000000000000000e+00 8.349951935162198968e-03 3.897977562067336116e-02 8.115180346523160893e+00
8.115588542750460377e+00 -0.000000000000000000e+00 0.000000000000000000e+00 6.872960437170035075e-02 8.059748362865351012e+00 0.000000000000000000e+00 8.349951935162198968e-03 3.897977562067336116e-02 8.114882962972989944e+00
8.119085207625605705e+00 -0.000000000000000000e+00 0.000000000000000000e+00 6.872960437170035075e-02 8.063220968561989110e+00 0.000000000000000000e+00 8.349951935162198968e-03 3.897977562067336116e-02 8.118379323842885853e+00
8.126716935698080846e+00 -0.000000000000000000e+00 0.000000000000000000e+00 6.872960437170035075e-02 8.070800185708732144e+00 0.000000000000000000e+00 8.349951935162198968e-03 3.897977562067336116e-02 8.126010388403178908e+00
8.137838803725259140e+00 -0.000000000000000000e+00 0.000000000000000000e+00 6.872960437170035075e-02 8.081845528526413247e+00 0.000000000000000000e+00 8.349951935162198968e-03 3.897977562067336116e-02 8.137131289480924679e+00
8.150510005456006013e+00 -0.000000000000000000e+00 0.000000000000000000e+00 6.872960437170035075e-02 8.094429544690026290e+00 0.000000000000000000e+00 8.349951935162198968e-03 3.897977562067336116e-02 8.149801389560012765e+00
8.162509440499643887e+00 -0.000000000000000000e+00 0.000000000000000000e+00 6.872960437170035075e-02 8.106346416330923788e+00 0.000000000000000000e+00 8.349951935162198968e-03 3.897977562067336116e-02 8.161799781357656158e+00
8.173825773588422550e+00 -0.000000000000000000e+00 0.000000000000000000e+00 6.872960437170035075e-02 8.117584886171908209e+00 0.000000000000000000e+00 8.349951935162198968e-03 3.897977562067336116e-02 8.173115130590097976e+00
8.185285285036025371e+00 -0.000000000000000000e+00 0.000000000000000000e+00 6.872960437170035075e-02 8.128965549219383746e+00 0.000000000000000000e+00 8.349951935162198968e-03 3.897977562067336116e-02 8.184573645732434954e+00
8.195811447243265491e+00 -0.000000000000000000e+00 0.000000000000000000e+00 6.872960437170035075e-02 8.139419285035533136e+00 0.000000000000000000e+00 8.349951935162198968e-03 3.897977562067336116e-02 8.195098892782942457e+00
8.202378510152273705e+00 -0.000000000000000000e+00 0.000000000000000000e+00 6.872960437170035075e-02 8.145941162561641136e+00 0.000000000000000000e+00 8.349951935162198968e-03 3.897977562067336116e-02 8.201665384742238274e+00
8.203726623311128563e+00 -0.000000000000000000e+00 0.000000000000000000e+00 6.872960437170035075e-02 8.147279999882890422e+00 0.000000000000000000e+00 8.349951935162198968e-03 3.897977562067336116e-02 8.203013380694766710e+00
8.200894342319589470e+00 -0.000000000000000000e+00 0.000000000000000000e+00 6.872960437170035075e-02 8.144467206705176210e+00 0.000000000000000000e+00 8.349951935162198968e-03 3.897977562067336116e-02 8.200181345944812961e+00
8.196836910167391466e+00 -0.000000000000000000e+00 0.000000000000000000e+00 6.872960437170035075e-02 8.140437692151275328e+00 0.000000000000000000e+00 8.349951935162198968e-03 3.897977562067336116e-02 8.196124266550583570e+00
8.194503133549313034e+00 -0.000000000000000000e+00 0.000000000000000000e+00 6.872960437170035075e-02 8.138119973334761781e+00 0.000000000000000000e+00 8.349951935162198968e-03 3.897977562067336116e-02 8.193790692835337452e+00
8.194807690549192003e+00 -0.000000000000000000e+00 0.000000000000000000e+00 6.872960437170035075e-02 8.138422434796702021e+00 0.000000000000000000e+00 8.349951935162198968e-03 3.897977562067336116e-02 8.194095223355365221e+00
8.194277333051088519e+00 -0.000000000000000000e+00 0.000000000000000000e+00 6.872960437170035075e-02 8.137895726480595116e+00 0.000000000000000000e+00 8.349951935162198968e-03 3.897977562067336116e-02 8.193564911968000075e+00
8.188586538265017367e+00 -0.000000000000000000e+00 0.000000000000000000e+00 6.872960437170035075e-02 8.132244087820128087e+00 0.000000000000000000e+00 8.349951935162198968e-03 3.897977562067336116e-02 8.187874611946080350e+00
8.177360166310394973e+00 -0.000000000000000000e+00 0.000000000000000000e+00 6.872960437170035075e-02 8.121094960124866091e+00 0.000000000000000000e+00 8.349951935162198968e-03 3.897977562067336116e-02 8.176649216027838563e+00
8.162442918964561756e+00 -0.000000000000000000e+00 0.000000000000000000e+00 6.872960437170035075e-02 8.106280352504207087e+00 0.000000000000000000e+00 8.349951935162198968e-03 3.897977562067336116e-02 8.161733265606541110e+00
8.147850523614783569e+00 -0.000000000000000000e+00 0.000000000000000000e+00 6.872960437170035075e-02 8.091788361700469778e+00 0.000000000000000000e+00 8.349951935162198968e-03 3.897977562067336116e-02 8.147142138938461287e+00
8.137676973647801404e+00 -0.000000000000000000e+00 0.000000000000000000e+00 6.872960437170035075e-02 8.081684811938545820e+00 0.000000000000000000e+00 8.349951935162198968e-03 3.897977562067336116e-02 8.136969473473385506e+00
8.132214935571937531e+00 -0.000000000000000000e+00 0.000000000000000000e+00 6.872960437170035075e-02 8.076260356002347152e+00 0.000000000000000000e+00 8.349951935162198968e-03 3.897977562067336116e-02 8.131507910273787942e+00
8.129778773486219023e+00 -0.000000000000000000e+00 0.000000000000000000e+00 6.872960437170035075e-02 8.073840956192141149e+00 0.000000000000000000e+00 8.349951935162198968e-03 3.897977562067336116e-02 8.129071959990850971e+00
8.130383767488693181e+00 -0.000000000000000000e+00 0.000000000000000000e+00 6.872960437170035075e-02 8.074441787468575882e+00 0.000000000000000000e+00 8.349951935162198968e-03 3.897977562067336116e-02 8.129676901394626398e+00
8.134047161452093277e+00 -0.000000000000000000e+00 0.000000000000000000e+00 6.872960437170035075e-02 8.078079975056072115e+00 0.000000000000000000e+00 8.349951935162198968e-03 3.897977562067336116e-02 8.133339976857861586e+00
8.140012239384308401e+00 -0.000000000000000000e+00 0.000000000000000000e+00 6.872960437170035075e-02 8.084004009627546949e+00 0.000000000000000000e+00 8.349951935162198968e-03 3.897977562067336116e-02 8.139304536178061156e+00
8.147604946577398977e+00 -0.000000000000000000e+00 0.000000000000000000e+00 6.872960437170035075e-02 8.091544474382359908e+00 0.000000000000000000e+00 8.349951935162198968e-03 3.897977562067336116e-02 8.146896583251951540e+00