8.231157679115000292e+00 7.996294186763000411e+00 2.493413463000000198e-03 8.236481473009000354e+00 8.024250394800999331e+00 4.088025063926999714e+00 3.731700531700000295e-02 4.167445226305000361e+00 7.591501423999999672e-03 4.445452889899999954e-02 4.176325313043999898e+00 4.077077005909999663e+00 4.148473707857999848e+00 8.004354951771999183e+00 3.604535004999999837e-03 4.152756634231000277e+00 8.016684214514999240e+00 4.078407368991999959e+00 4.134716363005000339e+00 4.194507465623000364e+00 8.163928935727000180e+00 4.125901809669000109e+00 4.194536745118999654e+00 4.085564447891999684e+00 2.110127521616000035e+00 6.101295594929999844e+00 2.036686106108999805e+00 2.095915391599000088e+00 6.116719079324999697e+00 6.122867699700999644e+00 6.177862331044000399e+00 6.102368268016999941e+00 2.034209744813999965e+00 6.163635402051999890e+00 6.101689667055000044e+00 6.104563832895999909e+00 2.049337652510999863e+00 2.040166376185999830e+00 2.041488451381999969e+00 2.074117962398999815e+00 2.058294325443000172e+00 6.125316525655000177e+00 6.145280139498000338e+00 2.029178156483999906e+00 2.027574095533000165e+00 6.151971198916999839e+00 2.054939860098000004e+00 6.119582471738000073e+00 2.072156747146999933e+00 2.086605764649999806e+00 8.163362192464999723e+00 2.121663426700000007e-02 2.031668780248999884e+00 2.045976340693000051e+00 2.109602068866999858e+00 8.018921645545999510e+00 2.030488840515999982e+00 2.062653922532000195e+00 2.062353551513000038e+00 4.076588960778999571e+00 2.534534538799999848e-02 2.042595776024000109e+00 6.122705602285999582e+00 2.126374418763000040e+00 8.042499658119000472e+00 6.122377087205999935e+00 2.101232456046000063e+00 6.122785841753000113e+00 8.152179844233000239e+00 6.772468312099999554e-02 6.106782670713999828e+00 2.050927518048999865e+00 2.080358148183000022e+00 4.183903319128000398e+00 2.037818671111999880e+00 2.092083213498999950e+00 6.096468989314000275e+00 4.089853144570000154e+00 8.220447948772999780e+00 6.111418357597999673e+00 6.122340027436999677e+00 2.074631932952000213e+00 4.203917125619000217e+00 6.115777766104000257e+00 6.149628506766999791e+00 2.008947473089000013e+00 5.356684028999999896e-03 4.100543165540999624e+00 2.028978166826000074e+00 2.037907336254999979e+00 6.190925706833000142e+00 8.012964827412000446e+00 2.064347354297999981e+00 6.127213547749000178e+00 2.043810649664000056e+00 4.097963982878000344e+00 4.117934635061000215e+00 2.048414741798000094e+00 6.130838855200000381e+00 6.190489355130000426e+00 8.036178271196000367e+00 6.109201715002000377e+00 6.185282385467999688e+00 6.107263018684999878e+00 8.162534829007000781e+00 4.146255694985000240e+00 6.097421689536999700e+00 2.046252364808999857e+00 6.150635805537000067e+00 4.167525845969000109e+00 2.043198456417000042e+00 6.180737033379999801e+00 6.094348276763000172e+00 4.073954542559000025e+00 4.146414474422000396e+00 6.122705396255000210e+00 6.132733200878999646e+00 6.169990450222999634e+00 4.197129163747000291e+00 6.137976486414999933e+00
7.314621457599999876e-02 7.986543506580000340e+00 1.291396387500000006e-02 8.231676754645999239e+00 8.009379721674999786e+00 4.103894319800000190e+00 8.165350297946000424e+00 4.172802921201999915e+00 4.063081494999999828e-03 6.927675644200000094e-02 4.143519649595999610e+00 4.079318715833999853e+00 4.158349765708999612e+00 8.058535203915999645e+00 8.150009416932000761e+00 4.146649444576000043e+00 8.007429542121000665e+00 4.082208180251999607e+00 4.099948797352999996e+00 4.150060544788000350e+00 1.561090178999999939e-03 4.132841185751000346e+00 4.205257623240999720e+00 4.062657125000000313e+00 2.162840338451000211e+00 6.107742069703999910e+00 2.038718585131999994e+00 2.098713472098999944e+00 6.094176488220999666e+00 6.148439574164999755e+00 6.172315495600999569e+00 6.138953960415999944e+00 2.027065910080000144e+00 6.178824953480999582e+00 6.065391274816000156e+00 6.076766640551999998e+00 2.043277808383999972e+00 2.022761576956999985e+00 2.019221187963000208e+00 2.076978710714000087e+00 2.075117810389000006e+00 6.115546741358000027e+00 6.129397381939000411e+00 2.016598972844999782e+00 1.997261396130000088e+00 6.147100469754000152e+00 2.040687297330999961e+00 6.145109483746000301e+00 2.068879631466999935e+00 2.195553376454999928e+00 8.155141056157999557e+00 8.142202744338000286e+00 2.026913287159000099e+00 2.085691352402999854e+00 2.117900525055000038e+00 8.027444391015000846e+00 1.985006614812000025e+00 2.104614654362999993e+00 2.132724479609999779e+00 4.022745934511999799e+00 4.898132298999999940e-02 1.998494242860999970e+00 6.111796315728000195e+00 2.167223874300999942e+00 8.094272883365999149e+00 6.094159821665999566e+00 2.082499165346999970e+00 6.139908158939999971e+00 8.104591414345000189e+00 1.195328673929999946e-01 6.130360123081000090e+00 2.053939952688999870e+00 2.092007752573000090e+00 4.218097532098999736e+00 2.031999862460999839e+00 2.126777332695999778e+00 6.080073083177000015e+00 4.138597159024000049e+00 6.152613020500000141e-02 6.142908521624000251e+00 6.114698048700000221e+00 1.994741440929999943e+00 4.273731657455999589e+00 6.067648367533999831e+00 6.179101667153999777e+00 1.933029569711999907e+00 4.946194328299999970e-02 4.061204599609999910e+00 2.014215882782000033e+00 1.960714560468999945e+00 6.137293244063999786e+00 7.988049502636999755e+00 2.132577019501999960e+00 6.011507097616999751e+00 2.045350183291999802e+00 4.151857549655000312e+00 4.161596667847000219e+00 2.004238190891999949e+00 6.201604631392999778e+00 6.145580154959000119e+00 7.997846762752000238e+00 6.059484891189000244e+00 6.200012976257999853e+00 6.038812258839000080e+00 8.135177358114999535e+00 4.152759286618000090e+00 6.079556478278999698e+00 2.059168752529000113e+00 6.106671890122999713e+00 4.182480212606000336e+00 2.010444677635999877e+00 6.169312242258000012e+00 6.055149965343000318e+00 4.050150720739999599e+00 4.175773701399999815e+00 6.147817551904999789e+00 6.131779651152999833e+00 6.169738424958000067e+00 4.209876841983000162e+00 6.199531042374999856e+00
8.176901099300000475e-02 7.968047515640000356e+00 2.235069499799999942e-02 7.299352373100000124e-02 7.986161393088999638e+00 4.117137345559999773e+00 8.119955551531999660e+00 4.176239537459999873e+00 9.939847349999999387e-04 9.466616442200000148e-02 4.108423153953999929e+00 4.077177664146000247e+00 4.156133017331000268e+00 8.066409733790999681e+00 8.121899648437999275e+00 4.137641380288999748e+00 7.991295232527999559e+00 4.084275517238999953e+00 4.070535781855999957e+00 4.141588045551999997e+00 5.542393932999999800e-03 4.136521823216000371e+00 4.212357532568000273e+00 4.035126690461999566e+00 2.201744917639000043e+00 6.100668665656000300e+00 2.045937028771000143e+00 2.100124717976000088e+00 6.082526618638000038e+00 6.162589790112000365e+00 6.169094526485999985e+00 6.146856232752999638e+00 2.015625385260999991e+00 6.186551987430999766e+00 6.040429571336000336e+00 6.046625834295999979e+00 2.036232105569999895e+00 2.006164848106000154e+00 1.995042763207999892e+00 2.080740609519000195e+00 2.087393367300999891e+00 6.097544378475999949e+00 6.102021110519999958e+00 2.010488728907999789e+00 1.984115749374000037e+00 6.140577752666000144e+00 2.022453941405999878e+00 6.159490768986000120e+00 2.052812194812000168e+00 2.311751794315000108e+00 8.116549836605999602e+00 8.108501516781000618e+00 2.019805407675999920e+00 2.130285201602000189e+00 2.125864771050999913e+00 8.036687141310000726e+00 1.936616650698000042e+00 2.147110056513000131e+00 2.212763183893999841e+00 4.023783934855000410e+00 6.521622540799999757e-02 1.957236870843999998e+00 6.090712959072000388e+00 2.130089486533000009e+00 4.889785420400000193e-02 6.062974576977000041e+00 2.073719459248000163e+00 6.154477690954999858e+00 8.083326247491999794e+00 1.388081629110000104e-01 6.150103005102000253e+00 2.050823870927999781e+00 2.102198440502000221e+00 4.225563812024000221e+00 2.020562531943999929e+00 2.164223152622999802e+00 6.080915420282000383e+00 4.131469209287000233e+00 6.353886967199999514e-02 6.179547408960999633e+00 6.098351756277000213e+00 1.928727184189999999e+00 4.250614852654000408e+00 6.023128038475999979e+00 6.209687280979999890e+00 1.845009094304999930e+00 4.383829437700000053e-02 4.049334480688999705e+00 1.998433357684999967e+00 1.876834065638000038e+00 6.084466465480000252e+00 7.988989959998000323e+00 2.184145463337999971e+00 5.901417592930999767e+00 2.053640269616999969e+00 4.135885513749999909e+00 4.127710640771000250e+00 1.976278982393999906e+00 6.285098212280000318e+00 6.111637027931999810e+00 7.979193563439999970e+00 6.016481587934999986e+00 6.216999689218999592e+00 6.005462711123000119e+00 8.138503425899999755e+00 4.139869229710000376e+00 6.066470771381999860e+00 2.061920147587000152e+00 6.065688689569999958e+00 4.158766423426000003e+00 1.978190231039000047e+00 6.156755970585000348e+00 6.003052526083999751e+00 4.032914276341999837e+00 4.183944640734000409e+00 6.146602245526000097e+00 6.124839246235000090e+00 6.171489979541999737e+00 4.154846539016999962e+00 6.248965103778999719e+00
9.087688181200000159e-02 7.942334148298000329e+00 3.092812536400000104e-02 7.441176426800000243e-02 7.956314519925999917e+00 4.128596748867000343e+00 8.077649001049000077e+00 4.217215694593000386e+00 8.125946137548000436e+00 1.212027105259999987e-01 4.071398969498000397e+00 4.071076120884000282e+00 4.150979594730999978e+00 8.069136441566000073e+00 8.085950280076000141e+00 4.126815070822999587e+00 7.970402736418000345e+00 4.086025093452000156e+00 4.038908623138000031e+00 4.130201097632999918e+00 1.060571913100000034e-02 4.137753056818000097e+00 4.215913562898999878e+00 4.003661065328000035e+00 2.221675966358000132e+00 6.078817060555000040e+00 2.062958621677000171e+00 2.103528680316999910e+00 6.082018298996000105e+00 6.162500745141000102e+00 6.173912628786999868e+00 6.124298646806000335e+00 1.998359446785000104e+00 6.183879182523999596e+00 6.027931710760999984e+00 6.015559290155000127e+00 2.027741997871999935e+00 1.993688238182999894e+00 1.970582398307999972e+00 2.085812329856000069e+00 2.096321295150000097e+00 6.072403175380999940e+00 6.064717347268000047e+00 2.013642632197000015e+00 1.992154839301000013e+00 6.131050332925999768e+00 2.001159676478999838e+00 6.156243822256000087e+00 2.012144850327000078e+00 2.433298095016999785e+00 8.087251001317000032e+00 8.107306139072999684e+00 2.011096829901000138e+00 2.182352690590000144e+00 2.132510981477000023e+00 8.041969529955000695e+00 1.886451978241000083e+00 2.191578642052999903e+00 2.299789374866000102e+00 4.038982429488999770e+00 4.015599205300000168e-02 1.915197416987000079e+00 6.052063700391999923e+00 2.146185743585999894e+00 5.061312020900000236e-02 6.032831290619999898e+00 2.078028971120000179e+00 6.161603457476999779e+00 8.077368312460000865e+00 1.082166917349999952e-01 6.166771153227999847e+00 2.044159577038000108e+00 2.109645819953000156e+00 4.212725663060999715e+00 2.004461874278999911e+00 2.197458096785999793e+00 6.106663293729999609e+00 4.067132870864999639e+00 8.185067827891000292e+00 6.218847615979999688e+00 6.073081653644999633e+00 1.878774400079999962e+00 4.192414031175999867e+00 5.987486011636000249e+00 6.257292095080000394e+00 1.775163124672999970e+00 8.125657961022000109e+00 4.054750754984000061e+00 1.984329302579000087e+00 1.781478259882999904e+00 6.037761331421999778e+00 7.991827868196000217e+00 2.215586191220999979e+00 5.800353902764999958e+00 2.070808431201000221e+00 4.076686551392000091e+00 4.065828102243999709e+00 1.968325404583999960e+00 6.386504406080000251e+00 6.093620708300999667e+00 7.963932459633999983e+00 5.979285387874999635e+00 6.229475337344999808e+00 5.987222213436999674e+00 4.335007119300000183e-02 4.118052272000999992e+00 6.062372413361000412e+00 2.051277260916999801e+00 6.029907496520999999e+00 4.108804755350999649e+00 1.946873489831999926e+00 6.147834642292999696e+00 5.937570903003999589e+00 4.038932701500000277e+00 4.166110664927000329e+00 6.108494381686999652e+00 6.115828304444000274e+00 6.181509684293000184e+00 4.071938230949999848e+00 6.281795167603999808e+00
1.000000463429999986e-01 7.911998303898999829e+00 3.920311081300000000e-02 7.580549026100000254e-02 7.922379821274000200e+00 4.138716293058999796e+00 8.024755159654999304e+00 4.217885750820999924e+00 8.102426129178999403e+00 1.491993367789999914e-01 4.032828999721999708e+00 4.062061323858999984e+00 4.144343719125999748e+00 8.069066131908000372e+00 8.045393221203999801e+00 4.115640861089000069e+00 7.947094940211999692e+00 4.087741667370999643e+00 4.005625064418000036e+00 4.116258519708999586e+00 1.671523160199999899e-02 4.137469447169999981e+00 4.216362686331000198e+00 3.969557327677000202e+00 2.223228248757000092e+00 6.046945892979000092e+00 2.089042781535999982e+00 2.111214586352000211e+00 6.086064826047000054e+00 6.154346266763999651e+00 6.190320035943999599e+00 6.085801473113000348e+00 1.975067149827000046e+00 6.170771481318999996e+00 6.023354771552000386e+00 5.982326232992999593e+00 2.019130667096999954e+00 1.989042966466000095e+00 1.947275539829999902e+00 2.087707967857999947e+00 2.102358578357999885e+00 6.044572391377999843e+00 6.025265174208000118e+00 2.022614143514999796e+00 2.014228813827000142e+00 6.115492802247000093e+00 1.979208161547000078e+00 6.133026220685000141e+00 1.936798288234000021e+00 2.545362274484999965e+00 8.086655010381999631e+00 8.118938290604999608e+00 2.004059341676999839e+00 2.241784261419999869e+00 2.136512523138000219e+00 8.031925622771000306e+00 1.838946706645000040e+00 2.240926384443000074e+00 2.377092221703999808e+00 4.022214420505999755e+00 8.103688114854000091e+00 1.867188427562999964e+00 5.985125502376999584e+00 2.211542226035000169e+00 8.026994953274000366e+00 6.003930308173000441e+00 2.089379866795999963e+00 6.151288263926000255e+00 8.050701930433000086e+00 8.135615884830999178e+00 6.174771519524999697e+00 2.040339736149999972e+00 2.111738177404999917e+00 4.196672103650000096e+00 1.991354521946000045e+00 2.214276227821000198e+00 6.151013080430000279e+00 3.978215469555999917e+00 8.152994421341999143e+00 6.247705767160000256e+00 6.041621172421000274e+00 1.841490347633000013e+00 4.189425637944999892e+00 5.959117334889000084e+00 6.308709966870000407e+00 1.645991867695999922e+00 8.086643882997000432e+00 4.050333845045000380e+00 1.975380202513999928e+00 1.669410470102000055e+00 6.002313711664999829e+00 7.957236890633000215e+00 2.234056970881999948e+00 5.705810619712000431e+00 2.094875159288000166e+00 4.025042460666999666e+00 4.037780422276999737e+00 1.976553422639999891e+00 6.498001024761999922e+00 6.080034644259000309e+00 7.921028566622999811e+00 5.937715782677999599e+00 6.249656814758999701e+00 6.060008128629999824e+00 9.842873907400000177e-02 4.104128624946000059e+00 6.063349242282000340e+00 2.029872537297999990e+00 6.001063067077000213e+00 4.067803242969000088e+00 1.913869182660999924e+00 6.142462326058000244e+00 5.863302823556000298e+00 4.084651996263000129e+00 4.129845189955999807e+00 6.033237021837000391e+00 6.104786726550000431e+00 6.200823712992000303e+00 4.034498535173000278e+00 6.299732634937000419e+00
1.085350983399999969e-01 7.881212452701999993e+00 4.761414220799999736e-02 7.694050175000000102e-02 7.888377851320999667e+00 4.148744159028000311e+00 7.974660143646000066e+00 4.219033713417999820e+00 8.080321612377000307e+00 1.783886211690000057e-01 3.994936819338999801e+00 4.052366550152999736e+00 4.070288429612999970e+00 4.010179288500000105e-02 8.006756888070999167e+00 4.106708525728000048e+00 7.924727088712000267e+00 4.089747816787999923e+00 3.972325761387999865e+00 4.102375497808999683e+00 2.384558686099999894e-02 4.137682291227999798e+00 4.216376690194000076e+00 3.935301560315000113e+00 2.215784964954000014e+00 6.017589631102000070e+00 2.112522586297000071e+00 2.124816990684000206e+00 6.090688434507000260e+00 6.152446529615000159e+00 6.214137175417000059e+00 6.050054705503000285e+00 1.950391578127000036e+00 6.153170493235999849e+00 6.020325044483000099e+00 5.948754287356000425e+00 2.011934122207000186e+00 1.993021375674000062e+00 1.926607813398000024e+00 2.083707895994999948e+00 2.106630575890999779e+00 6.020904949286999930e+00 5.993436622716999729e+00 2.029233178981999952e+00 2.040841374797000007e+00 6.094279293406000164e+00 1.960560053648999990e+00 6.098697351995999938e+00 1.826825681180999972e+00 2.624472307012999828e+00 8.070546267627999981e+00 2.025635251999999970e-02 2.003983442993999997e+00 2.310981856724000139e+00 2.135845492691999858e+00 8.008408550564999118e+00 1.798752496244000021e+00 2.297567487792000041e+00 2.421262758936999937e+00 3.995005613020000013e+00 8.086408402778999971e+00 1.816000842982999908e+00 5.882677358508000331e+00 2.194295050876000186e+00 7.946024589050000309e+00 5.972488892578000197e+00 2.097149523619000089e+00 6.116334942895999660e+00 7.994540432591000112e+00 8.033918962078999471e+00 6.164008560783999613e+00 2.050721837964000205e+00 2.104819938793999867e+00 4.188653786337999563e+00 1.993221772364000000e+00 2.202467804853000199e+00 6.202180677531999642e+00 3.910498998222000200e+00 8.123638366104000141e+00 6.257203756894000435e+00 6.010977425682000330e+00 1.812750997036999934e+00 4.225353061579999903e+00 5.930478153200000158e+00 6.359817573465000429e+00 1.476318889677000090e+00 1.101889424299999989e-02 4.032897428663000383e+00 1.975263363420999951e+00 1.542747582545000107e+00 5.978938818119000409e+00 7.900966361836999852e+00 2.260241697330000132e+00 5.615759443192000155e+00 2.122236976356000060e+00 4.027889701908000220e+00 4.038627960248000193e+00 1.999312952134000065e+00 6.598592751158999903e+00 6.051699521643000068e+00 7.875828331926999937e+00 5.883549325767999605e+00 6.263278299505000035e+00 6.166098862402000336e+00 1.160714911160000001e-01 4.097001638856999861e+00 6.059788133190999737e+00 2.006701378203000097e+00 5.982958282724999854e+00 4.057772022646999766e+00 1.878373180025999956e+00 6.138048954719000250e+00 5.786989091260999807e+00 4.156557075603999785e+00 4.089489380465000323e+00 5.933350813482999975e+00 6.087218979872999647e+00 6.228739616238000210e+00 4.046927644285999826e+00 6.312397421451000135e+00
1.163519525660000054e-01 7.854369204035999807e+00 5.584963134399999890e-02 7.793064969200000358e-02 7.858708444857000153e+00 4.160652930780999625e+00 7.932699099411999910e+00 4.223547130514999637e+00 8.063736862387999693e+00 2.084130580069999961e-01 3.960908602099999953e+00 4.044933758540000035e+00 4.069435214047000038e+00 5.827248280300000027e-02 7.976999485452999750e+00 4.102529244359000238e+00 7.907107422622999593e+00 4.092932501458999894e+00 3.941378991365000140e+00 4.092314062938999797e+00 3.162835041900000088e-02 4.140411486118999562e+00 4.219709134844999987e+00 3.904068533488000092e+00 2.211196246940999810e+00 6.006299133110999833e+00 2.117485312802999786e+00 2.142407987581000040e+00 6.088138302947999847e+00 6.161964844477999748e+00 6.228031885207999885e+00 6.030900658323999686e+00 1.928462205483999936e+00 6.140382150506000336e+00 6.010894070644000386e+00 5.930660851128999767e+00 2.005710644739000070e+00 2.003660016456000115e+00 1.909628240418999923e+00 2.075345225960000040e+00 2.113318023754000130e+00 6.006704590334999594e+00 5.975620648011999769e+00 2.026397369362999967e+00 2.065629216343999985e+00 6.074024840972000128e+00 1.949073945804000063e+00 6.068288833256000103e+00 1.699048905781000096e+00 2.647260489968000119e+00 8.017326931595000872e+00 8.055963403791000843e+00 2.015314419745999786e+00 2.388908291747999790e+00 2.129185478465999815e+00 7.995467995061000366e+00 1.769178797898000033e+00 2.359942932577999919e+00 2.413135963301999976e+00 3.985948131592000010e+00 4.977022721499999719e-02 1.774441226670000038e+00 5.753190440528999972e+00 2.179979220977999788e+00 7.981824438490000340e+00 5.937805865525000115e+00 2.094363298221999958e+00 6.058973548119999997e+00 7.948104289594000171e+00 8.016017355912000042e+00 6.129544656612000431e+00 2.083917174759999824e+00 2.085589815487999932e+00 4.179403020654000045e+00 2.016332243962999815e+00 2.159898642033000193e+00 6.249980025421000285e+00 3.905165051423999945e+00 8.102491688065999398e+00 6.251530052254000047e+00 5.989703184035000127e+00 1.789072800428999965e+00 4.229942392765999593e+00 5.891895201935000159e+00 6.410932409506999718e+00 1.383556078500999931e+00 5.154468005500000005e-02 4.019605054929000332e+00 1.987507593592999999e+00 1.420493007387999995e+00 5.963200171721999787e+00 7.876952845705000428e+00 2.319630946138000027e+00 5.533881068143999826e+00 2.150151704799000196e+00 4.087887688763999883e+00 4.046223295642000117e+00 2.039565546071000046e+00 6.661088338639999940e+00 5.994279642663999930e+00 7.892475817440000263e+00 5.814568357158999667e+00 6.267158552788999692e+00 6.283231605024999666e+00 7.778771476399999607e-02 4.082651320464999678e+00 6.043904324152999941e+00 1.992379195732000063e+00 5.976900803790000438e+00 4.064724635426999910e+00 1.843501037922000041e+00 6.132320267504000277e+00 5.714012008630000139e+00 4.189216953075000305e+00 4.063513492957000039e+00 5.832312626411000345e+00 6.057181784578999917e+00 6.262667902622999883e+00 4.052905731699000036e+00 6.332192954691000075e+00
1.241327840180000003e-01 7.833595978105999613e+00 6.314757957800000432e-02 7.943627389500000635e-02 7.835410050681000271e+00 4.175063011290999881e+00 7.901382566085000114e+00 4.232647470661000000e+00 8.054323573003999925e+00 2.388848551820000055e-01 3.932557130993000083e+00 4.041166003143000118e+00 4.074412626334000365e+00 7.302616012599999484e-02 7.958561704393000369e+00 4.103287946543000331e+00 7.896317214133000029e+00 4.097906109096999927e+00 3.914236305350999867e+00 4.087554602427999839e+00 3.939622306400000079e-02 4.145711618575999680e+00 4.227950214845000332e+00 3.877834772007000108e+00 2.210658534465999914e+00 6.020558762871999647e+00 2.108296688669000218e+00 2.158022939798999840e+00 6.078728565710999732e+00 6.167647268461999843e+00 6.226610291872000325e+00 6.037686219273999733e+00 1.908755868350000107e+00 6.139580807437999610e+00 5.994939939957999897e+00 5.937079873629000026e+00 1.998061212787999974e+00 2.019175482073999994e+00 1.897087501286000011e+00 2.065583341123999883e+00 2.123496621355000169e+00 6.002605036883999823e+00 5.973027218180999576e+00 2.011238591848000024e+00 2.087032319034999972e+00 6.062333435308000062e+00 1.946647202754000050e+00 6.051399522501999861e+00 1.578351137370999968e+00 2.600858796559000208e+00 7.968347970392000157e+00 8.000735278130999717e+00 2.036767281263000218e+00 2.461981101549000073e+00 2.119289966770999900e+00 8.009560122418999839e+00 1.749922084430999947e+00 2.424084069385000095e+00 2.347439260014000162e+00 3.976400114437999900e+00 7.521582724099999673e-02 1.759855945680999900e+00 5.617632124070000010e+00 2.118891942494999903e+00 8.558289248000000571e-02 5.919416638166000055e+00 2.081580470497999880e+00 5.991366281550000394e+00 7.955809495996000180e+00 8.083129732461999950e+00 6.076768191450000245e+00 2.123776440873999860e+00 2.056334496793999822e+00 4.160412328920999769e+00 2.054877323018000190e+00 2.099402388242999962e+00 6.282431256083000015e+00 3.945663456307999972e+00 8.084077677477999657e+00 6.241769542861000275e+00 5.987260814439999912e+00 1.774874230358999938e+00 4.205979757155000165e+00 5.845809887971999963e+00 6.432213820232999701e+00 1.365685790507999986e+00 8.288513400100000483e-02 4.015158846591999620e+00 2.012507145704999889e+00 1.334164494669999979e+00 5.954780372854999726e+00 7.895282392141999672e+00 2.411703431624999894e+00 5.466761253758999572e+00 2.179608520262999782e+00 4.145239566127999709e+00 4.060440684142999856e+00 2.098297791908999788e+00 6.672578540575999639e+00 5.909733815173000337e+00 7.953656152546000335e+00 5.737406985860999953e+00 6.258085067734000084e+00 6.386754022149999876e+00 2.314799121799999970e-02 4.064072628773000240e+00 6.018150797921999917e+00 1.988591679630000053e+00 5.978605218192999615e+00 4.071180291885999836e+00 1.810483701437000104e+00 6.124685977140999604e+00 5.654518474896000235e+00 4.145575733458000123e+00 4.062202875140999758e+00 5.756166129243999841e+00 6.015673993950000131e+00 6.295044426668000348e+00 4.032077444457000226e+00 6.362165079016000035e+00
1.328560395489999935e-01 7.819335501158000135e+00 6.910314597099999345e-02 8.193989010600000178e-02 7.818031435234000348e+00 4.190447192759999773e+00 7.880770412560000437e+00 4.245333533839000140e+00 8.052107951513999495e+00 2.687227021679999828e-01 3.910283913374999809e+00 4.039950073383000273e+00 4.084480420874999851e+00 8.587689093599999712e-02 7.949790989211000358e+00 4.107078759400000223e+00 7.892619121359000012e+00 4.104269168710000137e+00 3.891476363194000143e+00 4.087093199831000057e+00 4.686006171599999687e-02 4.152334160179999678e+00 4.239969492714999788e+00 3.856763297800000156e+00 2.204276044969999848e+00 6.054169891615999610e+00 2.102271490838000023e+00 2.168172708849000152e+00 6.064145542778000220e+00 6.157106487154000440e+00 6.224858893708000274e+00 6.068355373001000252e+00 1.898660012144999909e+00 6.151932302956000242e+00 5.973705667045000389e+00 5.948520554034000263e+00 1.988196647444000043e+00 2.038820613956000116e+00 1.891226690112999931e+00 2.057472214505999819e+00 2.137075605874999784e+00 6.004654214950000402e+00 5.982787408153000364e+00 1.986248065809999908e+00 2.105216754431999959e+00 6.061931695224999750e+00 1.954443118141999891e+00 6.049820094981000373e+00 1.478645724049000076e+00 2.492743668685999836e+00 7.964348253548999779e+00 7.971524647610999992e+00 2.058345574782999954e+00 2.511051834493999824e+00 2.041271967017999955e+00 2.763032563399999905e-02 1.738281555696000069e+00 2.482542009877000133e+00 2.233662564746000001e+00 3.943564620115000086e+00 3.682995340399999873e-02 1.786757695384999955e+00 5.499571992732000147e+00 2.157247423012000009e+00 1.363760776369999927e-01 5.944956060590000035e+00 2.063582766515999811e+00 5.931396759396999840e+00 7.998770191623999715e+00 7.646857591899999806e-02 6.025438876165000401e+00 2.132725591729999870e+00 2.026405760048000104e+00 4.147074128836999662e+00 2.096154410776999821e+00 2.044800388860000151e+00 6.290711663411999943e+00 3.986361148133000132e+00 8.058916009236000377e+00 6.236071347328000058e+00 6.012462137731000134e+00 1.783536393562999978e+00 4.211835988450999935e+00 5.812737062123000342e+00 6.418798293164000413e+00 1.424730794748999996e+00 1.004838087610000069e-01 4.008735793718000373e+00 2.043095351013000105e+00 1.308266848501999924e+00 5.961872454050999970e+00 7.917162958657000260e+00 2.502030607296000131e+00 5.420182636534000231e+00 2.215787207806999781e+00 4.141430665286000234e+00 4.074014132031999580e+00 2.168982630933999900e+00 6.639709192943000104e+00 5.819144954921999791e+00 7.971527219802999831e+00 5.673448126069000175e+00 6.236521779933999809e+00 6.490891238748999648e+00 8.059620489432999690e+00 4.062316010374999564e+00 5.997190395495000104e+00 1.987585491513000013e+00 5.983623661931000370e+00 4.086929986094999911e+00 1.776038940694999901e+00 6.118140340150000078e+00 5.630329348215999730e+00 4.082742692669000029e+00 4.074131724285999567e+00 5.725757654633000016e+00 5.976249879430000078e+00 6.313417790403000218e+00 4.022528423839999867e+00 6.391889881484999592e+00
1.430212543109999901e-01 7.811594269993999973e+00 7.371790776200000395e-02 8.525934955899999723e-02 7.805426813857000212e+00 4.204958958151999937e+00 7.870149996321999630e+00 4.260089674777000290e+00 8.057497831905999774e+00 2.961944582120000224e-01 3.894400447719000180e+00 4.038905917020000125e+00 4.098142508071999757e+00 9.820108823499999751e-02 7.948472349458000075e+00 4.111522631279999729e+00 7.895536234383000007e+00 4.110862062774000236e+00 3.873795895785999921e+00 4.090141066460000197e+00 5.453235290899999949e-02 4.159466689453999777e+00 4.254180235860999915e+00 3.840001220077999822e+00 2.187705413899999840e+00 6.096479081120000032e+00 2.106038014549000081e+00 2.177962644196000053e+00 6.045719219192999816e+00 6.135241662045999966e+00 6.227972158501000166e+00 6.106721692866999618e+00 1.907654515781999960e+00 6.170584891026999586e+00 5.948166138758000265e+00 5.946307415808999686e+00 1.977612773953999925e+00 2.061070041494999838e+00 1.894792009429000057e+00 2.052199125397999868e+00 2.151364535197000105e+00 6.007931586010999858e+00 6.000217700180000335e+00 1.959031071947999969e+00 2.120048870639999805e+00 6.069655345855999862e+00 1.970616241149000025e+00 6.058394218442000323e+00 1.402088516422999920e+00 2.345729867726999984e+00 7.986224176713999867e+00 7.981882095736000160e+00 2.067692013178000110e+00 2.524830211604999874e+00 2.030208701919999914e+00 2.158314441399999950e-02 1.731699917043000081e+00 2.519199946361000197e+00 2.092805475298999962e+00 3.913833659654000208e+00 8.030244103315000714e+00 1.855871946344000101e+00 5.424095442807000289e+00 2.211766629152999819e+00 7.666963696400000416e-02 6.023764047216999984e+00 2.043723346814999786e+00 5.897818096963000301e+00 8.025115572512000028e+00 5.678083238799999655e-02 6.004363486225999580e+00 2.089381312636000132e+00 2.005328120000999803e+00 4.154444954498000442e+00 2.130550666982999886e+00 2.011683501379999850e+00 6.274569895323000246e+00 4.008536348606000388e+00 8.029907155581000211e+00 6.238616174405000159e+00 6.065308159986999570e+00 1.821398866483999957e+00 4.246223643839999617e+00 5.811529883507000172e+00 6.387803795832000198e+00 1.528917608291000096e+00 8.715061830900000528e-02 3.994305938878000006e+00 2.067921018252000032e+00 1.345444507884000052e+00 5.994122991423999736e+00 7.918524651018000071e+00 2.553274114974999787e+00 5.407148085717000008e+00 2.255061068383999778e+00 4.085577437390999656e+00 4.061199606743000068e+00 2.240769383765000011e+00 6.575058975103000414e+00 5.757996113714000330e+00 7.928912874775999597e+00 5.657218171620000291e+00 6.177129844048000251e+00 6.468080978171999895e+00 1.854521657300000140e-02 4.075807107249000083e+00 5.997514456763999746e+00 1.984145729056999929e+00 5.992122039873000183e+00 4.119880711709999588e+00 1.737264671878000044e+00 6.119813481137000188e+00 5.650722530534999954e+00 4.057992829001999979e+00 4.075825806775999816e+00 5.748002561768999819e+00 5.956310368705000080e+00 6.305605946774999637e+00 4.050421392394000009e+00 6.405533017727999656e+00