-3.414111503249999805e+04
-3.414062808499999664e+04
-3.414063337280000269e+04
-3.414094907979999698e+04
-3.414123242369999934e+04
-3.414100302669999655e+04
-3.414085839509999641e+04
-3.414066873939999641e+04
-3.414037162430000171e+04
-3.414053923499999655e+04
-3.414074095169999782e+04
-3.414059618990000308e+04
-3.414026249180000013e+04
-3.414045313010000245e+04
-3.414040107349999744e+04
-3.414026387509999768e+04
-3.414020218829999794e+04
-3.414022743289999926e+04
-3.414008127480000257e+04
-3.413978621549999662e+04
-3.413974583269999857e+04
-3.413989146469999832e+04
-3.414035198639999726e+04
-3.414026190260000294e+04
-3.414000809879999724e+04
-3.413974043669999810e+04
-3.413979487839999638e+04
-3.414008489030000055e+04
-3.414060488099999930e+04
-3.414051461869999912e+04
-3.414040526240000327e+04
-3.414032281140000123e+04
-3.414025908399999753e+04
-3.414029432790000283e+04
-3.414057323480000196e+04
-3.414072390460000315e+04
-3.414040291799999977e+04
-3.414043811909999931e+04
-3.414078846909999993e+04
-3.414081832120000036e+04
-3.414097087209999881e+04
-3.414095846880000317e+04
-3.414078042840000126e+04
-3.414079837799999950e+04
-3.414106539920000068e+04
-3.414106213730000309e+04
-3.414113314810000156e+04
-3.414112529350000113e+04
-3.414108800930000143e+04
-3.414092170079999778e+04
-3.414079889969999931e+04
-3.414093703539999842e+04
-3.414090347430000111e+04
-3.414090430809999816e+04
-3.414090214749999723e+04
-3.414106435390000115e+04
-3.414087938990000112e+04
-3.414092643359999784e+04
-3.414088120360000175e+04
-3.414068801700000040e+04
-3.414059471399999893e+04
-3.414033865849999711e+04
-3.414046138349999819e+04
-3.414013780340000085e+04
-3.414021798080000008e+04
-3.414004124869999941e+04
-3.414007117350000044e+04
-3.414010606099999859e+04
-3.413998645170000236e+04
-3.414032282139999734e+04
-3.413991294819999894e+04
-3.413964588560000266e+04
-3.413955895279999822e+04
-3.414002755099999922e+04
-3.414014921940000204e+04
-3.413965721730000223e+04
-3.413955898470000102e+04
-3.413944694280000112e+04
-3.413981458569999813e+04
-3.413989770429999771e+04
-3.414016872790000343e+04
-3.413986381699999765e+04
-3.413999654919999739e+04
-3.414047304830000212e+04
-3.414009671030000027e+04
-3.414014152579999791e+04
-3.414053310410000267e+04
-3.414089133179999772e+04
-3.414090271870000288e+04
-3.414086542950000148e+04
-3.414082164860000194e+04
-3.414089418570000271e+04
-3.414080619969999680e+04
-3.414107927119999658e+04
-3.414095055280000088e+04
-3.414098912050000217e+04
-3.414126924590000272e+04
-3.414124320710000029e+04
-3.414116707660000247e+04
-3.414099208280000312e+04
-3.414125964699999895e+04
-3.414102476500000193e+04
-3.414125241649999953e+04
-3.414118477480000001e+04
-3.414094411969999783e+04
-3.414085754940000334e+04
-3.414099168349999673e+04
-3.414087161940000078e+04
-3.414084001100000023e+04
-3.414111255559999699e+04
-3.414098614169999928e+04
-3.414081227740000031e+04
-3.414047454540000035e+04
-3.414070133950000309e+04
-3.414043630709999707e+04
-3.414040957879999769e+04
-3.414008021770000050e+04
-3.414015105259999837e+04
-3.413998014790000161e+04
-3.413990265219999856e+04
-3.413998643840000295e+04
-3.413957636559999810e+04
-3.413994680440000229e+04
-3.413992591369999718e+04
-3.413975198790000286e+04
-3.413993390879999788e+04
-3.414014442170000257e+04
-3.413984285790000285e+04
-3.413989638669999840e+04
-3.414007815239999763e+04
-3.413948828499999945e+04
-3.413977387869999802e+04
-3.413985849849999795e+04
-3.414027235839999776e+04
-3.414042589150000276e+04
-3.413993811830000050e+04
-3.413995903140000155e+04
-3.414019393390000187e+04
-3.414032211600000301e+04
-3.414048497189999762e+04
-3.414089780910000263e+04
-3.414087176940000063e+04
-3.414077022189999843e+04
-3.414068662719999702e+04
-3.414085169009999663e+04
-3.414078352420000010e+04
-3.414099636779999855e+04
-3.414124041890000080e+04
-3.414125341650000337e+04
-3.414110246219999681e+04
-3.414125500009999814e+04
-3.414122067490000336e+04
-3.414116929099999834e+04
-3.414107248709999840e+04
-3.414108666629999789e+04
-3.414123235109999951e+04
-3.414124436060000153e+04
-3.414142238840000209e+04
-3.414111156840000331e+04
-3.414088498589999654e+04
-3.414101690539999981e+04
-3.414120038840000052e+04
-3.414077022659999784e+04
-3.414059711380000226e+04
-3.414071879489999992e+04
-3.414081785700000182e+04
-3.414076064549999865e+04
-3.414048596790000011e+04
-3.414044496549999894e+04
-3.414011203199999727e+04
-3.413983530829999654e+04
-3.414022784249999677e+04
-3.414045975129999715e+04
-3.414011162899999908e+04
-3.413989008319999994e+04
-3.413983641630000056e+04
-3.413968195430000196e+04
-3.413974296380000305e+04
-3.413994626140000037e+04
-3.413973926210000354e+04
-3.413987979890000133e+04
-3.413983202739999979e+04
-3.413974799830000120e+04
-3.413933185879999655e+04
-3.413966848849999951e+04
-3.413997355190000235e+04
-3.413961836210000183e+04
-3.413984731720000127e+04
-3.413973352500000328e+04
-3.413995514659999753e+04
-3.414031034830000135e+04
-3.414052872709999792e+04
-3.414070384480000212e+04
-3.414081676819999848e+04
-3.414045407770000020e+04
-3.414025634790000186e+04
-3.414066330880000169e+04
-3.414085094550000213e+04
-3.414075404620000336e+04
-3.414090358269999706e+04
-3.414117583290000039e+04
-3.414112278379999771e+04
-3.414091075370000181e+04
-3.414081637870000122e+04
-3.414101462980000360e+04
-3.414137157529999968e+04
-3.414142168800000218e+04
-3.414134388790000230e+04
-3.414098072539999703e+04
-3.414097714190000261e+04
-3.414108974619999935e+04
-3.414119858810000005e+04
-3.414129358389999834e+04
-3.414098633269999846e+04
-3.414061471650000021e+04
-3.414056926950000343e+04
-3.414097120880000148e+04
-3.414104418620000069e+04
-3.414088574879999942e+04
-3.414072561380000116e+04
-3.414132675639999798e+04
-3.414098910140000226e+04
-3.414055765930000052e+04
-3.414022602899999765e+04
-3.414042348289999791e+04
-3.413964699020000262e+04
-3.414016281690000324e+04
-3.414026931219999824e+04
-3.414034065910000209e+04
-3.413984548540000105e+04
-3.413996207300000242e+04
-3.414012879529999918e+04
-3.414028550740000355e+04
-3.414016628759999730e+04
-3.413984738459999789e+04
-3.414017317039999762e+04
-3.413948663200000010e+04
-3.413970066609999776e+04
-3.413991842550000001e+04
-3.413998372319999908e+04
-3.413935847330000252e+04
-3.413994530620000296e+04
-3.413997008749999804e+04
-3.413999538390000089e+04
-3.414016629410000314e+04
-3.414049902109999675e+04
-3.414033169539999653e+04
-3.414036445459999959e+04
-3.414065472549999686e+04
-3.414076040630000352e+04
-3.414077876639999886e+04
-3.414082851739999751e+04
-3.414090999279999960e+04
-3.414071638169999642e+04
-3.414075573240000085e+04
-3.414053600259999803e+04
-3.414089205000000220e+04
-3.414073496039999736e+04
-3.414105632809999952e+04
-3.414081300069999998e+04
-3.414116039150000142e+04
-3.414086458490000223e+04
-3.414081473359999654e+04
-3.414057465960000263e+04
-3.414051472179999837e+04
-3.414083107049999671e+04
-3.414095289760000014e+04
-3.414093494400000054e+04
-3.414073220269999729e+04
-3.414071816509999917e+04
-3.414063459259999945e+04
-3.414058884679999755e+04
-3.414072986780000065e+04
-3.414075239190000138e+04
-3.414037717359999806e+04
-3.414013997570000356e+04
