8.361328460000000450e-04 -1.464355843060000106e-01 -9.421017016299999824e-02 -2.617189811999999852e-02 -1.392783743390000051e-01 6.087176005799999762e-02 5.878285452000000383e-03 1.731894195579999907e-01 -6.162045820700000343e-02 3.665998717800000167e-02 1.610772733570000059e-01 1.446159680400000043e-02 2.516490791000000008e-03 -6.451933891300000445e-02 -8.243864058699999775e-02 5.623523521700000277e-02 6.685594113000000414e-03 4.268636644399999985e-02 -7.810054252999999724e-03 9.268936899599999890e-02 3.064602570100000145e-02 -3.935654125000000170e-03 8.961423853000000106e-03 -8.153029743799999896e-02 -1.606901174869999893e-01 -9.601171577099999743e-02 4.416495102700000036e-02 -1.756456713550000048e-01 -4.585347609399999941e-02 -7.898926787000000449e-03 9.333303164200000557e-02 -2.494863389710000046e-01 -7.322580989700000487e-02 1.237781946679999967e-01 2.474412581969999969e-01 6.502512308800000029e-02 3.166252802430000179e-01 5.517401775599999753e-02 -3.672664674799999696e-02 -7.516795722699999571e-02 4.895120709800000053e-02 -6.289646594299999616e-02 -1.947520997989999891e-01 1.961549100130000056e-01 4.049144864449999992e-01 7.666437071999999964e-02 -8.435616794099999594e-02 8.706799381000000088e-03 -1.450856615199999991e-02 3.502157695299999707e-02 7.904023051999999397e-03 -1.401129280410000066e-01 1.668577878099999912e-02 1.463201008899999919e-02 2.756813054900000143e-02 8.638123107900000375e-02 -1.556985510299999965e-02 1.158329697100000076e-02 2.755588747900000052e-02 1.253792804380000070e-01 1.308655466439999915e-01 1.704961172899999849e-02 4.083462767999999909e-03 -1.618978277500000146e-02 9.235894486500000056e-02 -1.630070154800000032e-02 2.868195550199999916e-02 3.715379995800000001e-02 1.585104844130000024e-01 -1.172600626290000031e-01 -2.837270086700000027e-02 -6.322600237999999317e-02 1.499319216000000003e-02 -1.916525480900000133e-01 -5.940115646999999735e-03 9.847859789200000269e-02 9.173701307100000368e-02 -1.203476553539999938e-01 6.961661471600000262e-02 6.997865247100000519e-02 -2.160779739999999958e-04 8.363979966300000291e-02 -2.984635528460000131e-01 1.951951268299999959e-02 3.040034607999999791e-03 -1.555763511700000018e-02 -6.262246186400000081e-02 8.793881170000000108e-04 -6.120623700999999750e-03 -2.077252253299999990e-02 7.095061764000000146e-03 9.015020135399999524e-02 -6.293307715399999724e-02 4.507302777200000027e-02 3.652169010800000032e-02 -4.205993698480000043e-01 -2.463679503569999873e-01 6.622575871699999672e-02 5.994072260999999679e-02 1.953625120599999931e-02 -2.929472900999999935e-02 3.241934740599999865e-02 1.656629835300000089e-02 1.279485547370000087e-01 1.763419532799999911e-01 -1.114222301780000007e-01 3.417946942100000274e-02 -1.503707680199999931e-02 6.988026646000000675e-02 -8.105449521299999682e-02 -2.952962505000000099e-03 -4.231354149299999812e-02 -2.327751950299999928e-02 1.137832897519999997e-01 1.197702826699999917e-02 -7.115575356200000423e-02 -6.875795782599999906e-02 -1.965298541200000138e-02 -2.483820894219999909e-01 -8.167943133000000328e-03
9.913763533000000128e-02 -3.953288091259999915e-01 -2.267857406190000036e-01 -4.762835792999999852e-03 -3.041118789189999894e-01 2.129651165860000084e-01 -2.035949840699999985e-02 3.960840492969999738e-01 1.088972920769999964e-01 1.124405556599999967e-01 3.187444558229999836e-01 -1.869710728429999913e-01 -4.080075369999999757e-02 -8.788600626600000243e-02 -4.205041001100000009e-01 1.479361419509999942e-01 1.464879143599999954e-02 4.119939579240000094e-01 1.436907878919999881e-01 1.578523197679999879e-01 1.953536458069999870e-01 7.398563312799999458e-02 2.262779019099999886e-02 -2.331443593989999952e-01 -6.110487542460000254e-01 -4.219903446609999942e-01 3.510924278290000200e-01 2.491951100100000052e-02 9.116323486890000050e-01 -3.041482395460000099e-01 3.866065069269999932e-01 -1.231803966353999913e+00 -1.197646553160000016e-01 -1.065103639759999998e-01 8.929009707959999487e-01 1.528618928909999952e-01 5.699911039299999926e-02 2.350758404490000120e-01 -2.366925262099999969e-02 2.756806915980000161e-01 -3.142945139619999773e-01 -2.836680407330000042e-01 -6.129328235969999650e-01 8.073658575509999880e-01 1.884288969214999998e+00 4.115446931280000165e-01 -2.247588600210000120e-01 -5.248023818139999630e-01 -1.774686791079999881e-01 1.556053895160000033e-01 -5.087676998490000546e-01 3.117797487219999830e-01 -1.096738122700000040e-02 1.125321529339999987e-01 2.658317006099999991e-02 1.394229315319999996e-01 -1.339493130499999976e-02 3.857675626100000310e-02 2.112377979010000018e-01 1.139831912502000000e+00 -6.829935054699999564e-02 9.382569688899999871e-02 -7.490667442499999995e-02 -1.251417068560000123e-01 1.134549110390000032e-01 4.046031299899999906e-02 2.050195893629999933e-01 5.592789879099999834e-02 6.171878094670000259e-01 -5.514001637500000053e-01 3.021876552100000168e-02 -7.656975175100000364e-02 5.019922793999999876e-03 -4.065706534879999778e-01 -6.845442836600000580e-02 8.626684799299999540e-02 3.905395607959999960e-01 -9.407298063889999451e-01 -9.701702170199999475e-02 1.914882616939999893e-01 -5.809045410600000015e-02 2.713128417630000233e-01 -1.711325171626999930e+00 1.564643743199999881e-01 1.051623714510000057e-01 -1.728582657340000106e-01 -9.094618563520000531e-01 5.880945938320000232e-01 1.099222967199999998e-02 -7.690076600100000104e-02 1.083296563599999984e-01 6.379581802799999535e-01 -2.542482217120000110e-01 1.985767483239999909e-01 1.489784954920000126e-01 -1.210192829768999889e+00 -1.423379146692000052e+00 3.175165931889999960e-01 3.152565316059999789e-01 2.866817556080000218e-01 5.205761947379999866e-01 2.198589586709999988e-01 1.359600647089999892e-01 6.918434506139999884e-01 6.765587173979999980e-01 -2.941212339259999808e-01 1.737547281669999943e-01 -1.445189091550000138e-01 1.446080179960000101e-01 -6.499276524020000112e-01 4.137791323900000262e-02 7.491549133000000027e-02 -1.307105941410000027e-01 1.467396185219999871e-01 -3.138956819770000184e-01 -3.564760650820000265e-01 -1.072499565600000017e-02 1.273091707029999908e-01 -1.221263346820000040e+00 -1.133024361520000023e-01
1.049415316310000068e-01 -3.982920187610000107e-01 -1.997785464060000127e-01 1.747985770500000077e-02 -2.618073657009999944e-01 2.007111662280000042e-01 7.017529285100000680e-02 2.947052727500000247e-01 1.864254557620000086e-01 2.268298829000000016e-01 2.176564102469999984e-01 -2.705091443170000165e-01 -5.265256626800000200e-02 3.710104282400000092e-02 -5.133120899069999465e-01 1.977511662230000133e-01 1.420746723250000121e-01 5.371090582069999453e-01 1.462147303770000017e-01 -2.330202045400000047e-02 2.321462253319999947e-01 5.645359814700000312e-02 -1.714514253649999931e-01 -2.386834387060000062e-01 -9.001599880770000395e-01 -5.514839259880000011e-01 5.698801318680000172e-01 1.698830194229999924e-01 7.703122813830000082e-01 -5.460620686739999785e-01 6.063986618910000015e-01 -1.378117386620000051e+00 -2.214031106559999906e-01 -3.252552288219999754e-01 8.371735947999999761e-01 1.773512753289999966e-01 -1.944518233999999873e-02 5.159908878769999818e-01 1.191097876990000054e-01 3.048029581180000114e-01 -1.732141096220000120e-01 -3.083382677290000262e-01 -5.944434030480000297e-01 1.053949086058000084e+00 2.227384918418000126e+00 1.106680789619999966e-01 -1.625287151619999870e-01 -1.311933955466999979e+00 -3.857441795950000141e-01 1.230119256000000022e-01 2.837996393109999960e-01 6.981998162900000526e-01 -8.230434998000000363e-03 1.534071725689999943e-01 1.611662912000000076e-03 3.744585643400000219e-02 -1.281107632299999938e-02 5.088479563799999661e-02 1.559208869829999955e-01 2.797848039210000248e-01 -7.894674892359999641e-01 1.379022928699999949e-02 -2.152696435670000130e-01 -2.365208936859999889e-01 -9.988156533180000407e-01 9.504224047100000294e-02 2.524828443889999829e-01 -4.952264682399999673e-02 3.862902744269999800e-01 -8.475809701519999573e-01 2.571353496499999974e-02 -4.067327617100000015e-02 -2.224129099499999943e-02 -3.060074435330000231e-01 -6.305698358599999553e-02 -4.406264460999999993e-02 4.976224264449999879e-01 -9.485790464150000156e-01 -1.541189150789999962e-01 1.256232017620000085e-01 -7.747467887499999428e-02 3.054604865009999948e-01 -5.710585606760000266e-01 2.265240956260000105e-01 2.158129641190000003e-01 -3.337894337689999991e-01 -7.693536258280000428e-01 3.548328638179999994e-01 4.908131900800000169e-02 -1.577610395340000027e-01 1.698538702229999975e-01 1.449411887219999862e-01 -3.300480076280000175e-01 2.409543608739999898e-01 1.750209063729999959e-01 -6.920068292759999906e-01 -4.154567653610000133e-01 3.664466399179999723e-01 3.803092394759999828e-01 3.572043716519999745e-01 1.746287868349999939e-01 1.804036746669999969e-01 1.383844235530000133e-01 9.939507723299999542e-01 5.956791923019999491e-01 -1.127539347540000014e-01 2.285285060520000078e-01 -2.069562045999999988e-01 1.565315506219999986e-01 -4.142194376359999985e-01 4.806939145300000160e-02 1.351783565699999912e-01 -1.593195414599999915e-01 4.299472446290000249e-01 -4.027261320569999747e-01 -5.570474860599999856e-01 4.041794152400000201e-02 2.136384386899999877e-01 -4.624818230319999723e-01 -2.257818955539999950e-01
-8.553895451000000094e-03 -2.762489715800000023e-01 -7.621418046200000018e-02 -3.690500798000000051e-03 -1.526972352479999961e-01 3.830660589100000346e-02 2.784750030220000117e-01 4.198061447800000012e-02 1.873481501869999899e-01 2.840589725039999736e-01 5.270133516400000301e-02 -2.762365808989999949e-01 2.311669540800000144e-02 8.933192692499999921e-02 -2.768856789229999782e-01 2.773374852700000170e-01 1.987290601230000120e-01 3.460947697030000159e-01 3.193482699900000027e-02 -2.108557229509999964e-01 2.129910625960000081e-01 9.418709040999999338e-03 -3.500624386399999732e-01 -1.775161733500000005e-01 -9.133479990130000115e-01 -3.973902801959999787e-01 5.296833895300000483e-01 2.515153855389999915e-01 3.213769012839999828e-01 -3.153228826059999990e-01 7.204529552320000363e-01 -6.680564435050000416e-01 -2.745163881770000258e-01 -4.176711493470000036e-01 5.203321856320000105e-01 2.425957574599999986e-02 7.034481074300000247e-02 8.510831128000000412e-01 2.016823412750000100e-01 -2.476932411970000081e-01 -2.023016056810000018e-01 -1.851155657200000137e-02 4.782681542199999913e-02 6.638887495159999652e-01 1.400006420451999967e+00 -3.460038874099999884e-01 1.700571571099999957e-02 -1.738634893028000006e+00 -5.653345227839999820e-01 -1.489197629779999976e-01 6.529258069940000464e-01 2.985021771379999800e-01 3.860201396500000104e-02 1.186991662310000056e-01 -2.894968828299999963e-02 -2.186930548580000022e-01 6.644043337600000210e-02 8.530485155500000527e-02 -1.422846169549999984e-01 -6.259145165849999692e-01 -3.522030007370000049e-01 -9.289711051900000072e-02 -4.243831785070000251e-01 -3.230233431849999781e-01 -1.421277694565000083e+00 7.131086933800000194e-02 1.362977266990000047e-01 -2.521963024880000126e-01 -3.303897315289999748e-01 -8.478637286329999689e-01 -9.572288859100000491e-02 5.505805923499999810e-02 -7.385074889499999851e-02 -1.653371505399999983e-02 5.824677115000000127e-02 -2.601035430359999734e-01 3.526370734409999819e-01 -3.805535426889999906e-01 -5.761321783699999838e-02 -1.503660042440000122e-01 -6.314222210400000090e-02 2.282975356639999898e-01 1.136968444922999977e+00 1.738440444969999998e-01 2.403178208760000101e-01 -3.339974175309999849e-01 5.758132409739999957e-01 -1.786906237860000080e-01 1.002868117839999934e-01 -2.614526694479999969e-01 2.412128276959999984e-01 -6.572465108289999858e-01 -2.220375556259999994e-01 1.646976940600000106e-01 1.290757949399999882e-01 1.642969569000000130e-01 7.147782918909999506e-01 2.761124713340000203e-01 2.090443945619999966e-01 1.267133235189999985e-01 -4.940676005249999836e-01 -3.148629263000000261e-02 3.048084257400000135e-02 9.266148360170000098e-01 7.717989608500000487e-02 1.915973437569999938e-01 1.339746589759999995e-01 -1.705489814639999935e-01 1.534819432149999996e-01 1.966930033350000051e-01 -1.311991927700000005e-02 1.048555598030000008e-01 -9.195165216799999763e-02 7.148491428959999894e-01 -2.814622897569999949e-01 -5.823563881559999933e-01 1.564615191599999858e-02 1.950357825219999897e-01 9.087287069139999840e-01 -2.168603056600000023e-01
-1.526838427140000121e-01 -2.627304234639999958e-01 2.778510878499999837e-02 -6.412762120199999583e-02 -1.776475843249999964e-01 -1.712054783299999938e-01 4.724778852450000066e-01 -3.897829167399999989e-02 1.185191592119999998e-01 1.983039796000000132e-01 8.845182625500000451e-02 -2.571917415700000209e-01 1.718202194300000041e-01 -2.019769706029999889e-01 2.546190348249999791e-01 3.880871435589999807e-01 1.502104166100000013e-02 -6.712178832100000603e-02 -6.399389369199999511e-02 -1.005809194269999957e-01 2.132748777379999960e-01 -8.899046606999999609e-03 -2.337818110690000062e-01 -9.140196361499999811e-02 -4.725167292590000123e-01 8.445013258599999573e-02 -1.164561144780000002e-01 2.917336415640000014e-01 2.893185130999999938e-02 3.102711627940000216e-01 3.960419234429999880e-01 1.439433284699999926e-01 -7.288236302499999375e-02 -2.688634600250000006e-01 6.021627954599999971e-02 -1.159233984870000067e-01 1.336013872210000120e-01 8.160945066500000511e-01 2.490963741549999944e-01 -6.193059097599999951e-01 -2.380786211260000063e-01 3.562059303849999803e-01 7.102869248159999760e-01 -2.686913044020000085e-01 3.583995517299999878e-01 -6.536563407909999901e-01 3.053261499900000175e-01 -1.155821680564000031e+00 -5.891634623570000118e-01 -5.625200680149999855e-01 -3.194817921759999790e-01 -4.914775417269999780e-01 1.119602077440000065e-01 1.431139430879999896e-01 -8.219183143000000080e-02 -2.773604166790000214e-01 1.241321613620000042e-01 1.183819428000000007e-01 -5.649553631920000152e-01 -1.804873005729999980e-01 8.830345167359999747e-01 -6.733226641499999443e-02 -6.198135597349999637e-01 -2.518948598060000155e-01 2.172717399880000066e-01 -5.022229087400000014e-02 -7.069332612299999985e-02 -4.320878304569999995e-01 -5.739738103770000155e-01 -1.044840978599999998e-01 -3.329351145589999894e-01 2.291873009389999993e-01 -1.526559399140000051e-01 1.621669553729999935e-01 2.532268038609999938e-01 -4.958505587640000267e-01 9.342200851699999919e-02 3.479700187850000015e-01 3.776829021400000125e-02 -3.560290510520000007e-01 5.082393717999999887e-03 1.444831368199999966e-01 7.187937654170000190e-01 -7.341358553999999606e-03 1.272357730129999864e-01 -4.366574323599999724e-02 8.543631008019999529e-01 -2.556044523739999796e-01 1.417507930019999973e-01 -2.560545282869999828e-01 2.017418012169999997e-01 -4.387680743519999926e-01 1.075921470509999950e-01 7.272867123600000594e-02 4.398667749199999810e-02 9.604726058220000029e-01 4.881871842320000265e-01 2.261047092269999892e-01 -1.930911040090000086e-01 -2.599391594580000020e-01 -1.311882448209999996e-01 -2.205148643010000076e-01 -1.305286057010000000e-01 5.326046657840000087e-01 -6.466905376320000176e-01 1.292412941649999925e-01 -9.147245324199999861e-02 -3.301603528699999929e-02 1.730016507959999950e-01 5.716979685199999883e-01 -4.770645080500000162e-02 2.903309508999999886e-03 -3.633517394800000327e-02 5.101706827940000188e-01 -7.903142031599999506e-02 -4.269488955499999849e-01 -1.175310184540000052e-01 1.265014242639999897e-01 9.218700140769999773e-01 -1.095531783889999999e-01
-1.930062760029999935e-01 -3.499911689779999779e-01 -5.130014490999999788e-02 -4.694180372099999998e-02 -2.591950837540000219e-01 -2.745572203330000072e-01 5.853971378050000229e-01 6.330761628999999335e-02 -5.748119251699999877e-02 9.744846351399999440e-02 2.735027889130000056e-01 -1.355228864049999871e-01 3.324189902129999763e-01 -6.891752276370000097e-01 7.464525223239999452e-01 4.150054842750000028e-01 -2.105999845329999953e-01 -4.215836284930000177e-01 -6.247210743099999852e-02 2.161877377349999962e-01 1.295915920800000121e-01 -9.654591909500000180e-02 6.265033782600000489e-02 8.764185302700000513e-02 1.113605219730000040e-01 7.106526722260000373e-01 -1.115844722118999988e+00 1.322441126929999877e-01 -6.484617764829999631e-01 4.417649344410000123e-01 -7.898961314879999751e-01 6.141925633420000086e-01 1.136751245540000010e-01 2.310971348600000114e-02 -5.963314681350000424e-01 5.660871911470000128e-01 -2.671978884900000004e-02 4.738468357130000141e-01 2.307548690629999955e-01 -5.629432428759999496e-01 1.155458385289999945e-01 5.125162427899999651e-01 9.529603503889999550e-01 -1.076738804651000025e+00 -3.871752068309999850e-01 -3.384446624190000086e-01 5.722280526359999620e-01 1.549188012099999949e-02 -3.064288399919999906e-01 -9.820505368190000084e-01 -8.202251247059999528e-01 -7.355501196639999684e-01 1.697831705020000082e-01 1.198623076639999951e-01 -1.324772965400000113e-01 8.746797033099999730e-02 1.653154179409999924e-01 6.340299206199999371e-02 -9.218280760699999465e-01 3.406886469479999957e-01 8.244009900490000264e-01 1.407777549950000040e-01 -5.307757333670000133e-01 2.087759444899999969e-02 2.091144799339999860e+00 -1.588046467320000099e-01 -2.122785603179999925e-01 -4.604093769359999810e-01 4.903791901400000180e-02 1.424524225982999992e+00 -4.808194280829999889e-01 3.871356181289999920e-01 -2.368972398950000002e-01 -7.212610949700000440e-02 3.451982062769999859e-01 -5.562209769899999490e-01 -1.375220968349999962e-01 1.096441814792000091e+00 5.388409503600000150e-02 -3.413616629530000224e-01 8.204117124300000508e-02 5.272782237799999994e-02 -7.087978136320000067e-01 -2.527465840349999993e-01 -2.154071131059999977e-01 6.322348771450000404e-01 1.356979190500000043e-01 4.416185705200000033e-02 1.823215499680000129e-01 5.522806050000000216e-02 4.723327404000000201e-02 5.230374032200000300e-01 5.548634069810000069e-01 7.888308120900000553e-02 -2.544835790100000161e-02 9.897968305300000047e-01 1.442339987300000036e-02 2.645996544020000063e-01 -7.548752991989999828e-01 -5.754505251979999958e-01 1.069520254823000061e+00 -3.252000625929999944e-01 -2.441554748839999955e-01 8.526161573300000684e-02 -1.034197138544999950e+00 -1.991098262719999956e-01 -2.951145959029999877e-01 1.386128151640000083e-01 1.349081822930000008e-01 2.345398539609999944e-01 -4.237433595000000310e-03 -1.018247483449999935e-01 -1.510453763799999953e-02 -7.364713139080000248e-01 2.023993842579999980e-01 -8.387274227299999774e-02 -2.924114417429999890e-01 2.099898005399999934e-02 -2.278544989209999871e-01 4.951343625599999992e-02
-4.125413200900000105e-02 -3.189751277749999780e-01 -2.388249978339999913e-01 1.105776698060000063e-01 -2.274394936970000058e-01 -3.467824295260000245e-01 6.976720143090000548e-01 1.077393530519999976e-01 -1.492429514670000068e-01 9.251413349999999466e-03 4.574167340979999885e-01 -2.800666394400000078e-02 4.078712865040000080e-01 -8.170111607140000398e-01 8.311916435959999516e-01 2.288148696890000000e-01 -1.790846262159999924e-01 -4.908073656240000138e-01 4.903834430899999680e-02 3.180347248550000061e-01 -3.360639503400000144e-02 -3.210563542009999827e-01 1.856021818989999905e-01 3.233994645080000008e-01 1.517140623590000070e-01 1.032679038236999913e+00 -8.652398883440000077e-01 -2.211839948379999976e-01 -6.342071939590000484e-01 -5.270774380649999591e-01 -1.191914583828999952e+00 1.036507327258999966e+00 -2.889098530900000017e-02 3.171730379750000162e-01 -6.113342541830000254e-01 1.091330114100999893e+00 -3.365735198779999937e-01 2.471637489969999990e-01 2.356197390520000101e-01 -3.251302787520000126e-01 1.243128724029999993e-01 4.292157533040000250e-01 9.112446780220000431e-01 -1.390134258543000101e+00 -5.470628328309999899e-01 2.903923778099999908e-01 6.754417167639999997e-01 7.776431886819999972e-01 1.260116576420000079e-01 -1.223910731621999926e+00 -4.947136703899999988e-02 -2.339202180570000011e-01 1.440519672049999922e-01 -1.295658448060000023e-01 -8.977023319900000187e-02 3.694293253590000270e-01 1.485434096619999977e-01 -1.991472755599999964e-02 -1.011587905262000042e+00 -6.441163057000000303e-02 -4.206296830879999726e-01 4.243634910979999786e-01 -1.686203102280000032e-01 3.406517904710000266e-01 1.228209339226999930e+00 1.627022037380000119e-01 -2.040960697489999920e-01 -2.646088879290000029e-01 8.811495447349999566e-01 1.445397332908000099e+00 -4.185206481879999996e-01 1.063034209139999964e-01 -2.077673718710000006e-01 -2.747398373070000233e-01 2.254385292630000093e-01 -3.411987494329999926e-01 -3.747634862570000114e-01 7.375178242340000301e-01 -7.857224242299999661e-02 -1.646635508929999991e-01 2.133920457179999952e-01 1.147667322160000059e-01 -6.369913893930000404e-01 -2.450638552609999965e-01 -6.307746773650000360e-01 1.285322172244999894e+00 -1.861256526210000040e-01 1.068394229240000048e-01 1.875228324840000071e-01 5.969888622050000260e-01 1.075139173800000042e-02 6.498587273200000514e-01 5.352483283059999986e-01 1.758486113620000013e-01 -2.431090621700000148e-02 -1.297655045979999866e-01 5.729307031800000283e-02 2.777958321560000110e-01 -9.955381478989999700e-01 -5.576604874520000310e-01 7.294471392970000023e-01 -2.404990829139999897e-01 -3.074772651759999920e-01 -3.377548918470000272e-01 -2.645879937660000070e-01 -1.700195047510000002e-01 -2.808939980140000015e-01 1.585450817079999963e-01 2.875462131900000107e-02 -1.317323863779999993e-01 1.354858018400000030e-02 -1.354547561159999969e-01 1.137205075909999974e-01 -1.513410782455000048e+00 3.808946461030000008e-01 3.397984364250000167e-01 -3.047225384480000132e-01 -1.265901813939999954e-01 -6.117527335760000184e-01 7.954692467599999706e-02
1.844858740489999926e-01 -3.762982487000000008e-03 -3.232739479960000106e-01 2.223955931790000118e-01 -1.143082738879999949e-01 -5.931970246019999671e-01 9.178959921810000422e-01 -2.343585752199999969e-02 5.961955866199999954e-02 -2.309858159909999875e-01 6.423611052740000327e-01 -1.700323779229999943e-01 3.356016814589999897e-01 -4.409191810229999842e-01 6.400088338039999769e-01 -9.364262669700000596e-02 9.646820581999999977e-02 -4.568722973739999804e-01 2.785680761239999748e-01 1.647531407579999885e-01 -1.065387133300000067e-01 -5.001606210889999460e-01 1.549995275099999917e-02 4.656209826330000023e-01 -4.123700355800000161e-01 7.055784052129999706e-01 1.333578371939999896e-01 -4.078935320459999847e-01 -4.950377853829999730e-01 -1.150353326504000018e+00 -2.055804299450000039e-01 9.857702163729999967e-01 3.931392609509999914e-01 4.252174423310000062e-01 -5.018713578860000135e-01 -4.155885039999999975e-02 -3.806042917019999972e-01 2.151304316000000050e-01 4.818717901399999781e-01 2.231939073400000112e-02 1.504441311999999975e-01 1.022973102349999941e-01 6.952206467299999471e-01 -1.116336220163999915e+00 -4.919210147609999750e-01 6.293091462890000320e-01 8.383701245439999505e-01 1.029665122157999990e+00 3.717417948019999807e-01 -1.067474993003000083e+00 7.344559201239999613e-01 3.522588882700000146e-01 -2.732401370500000051e-02 -4.585087610810000269e-01 -6.805231485999999920e-03 6.300469785199999673e-02 1.044652324060000026e-01 -1.326839862729999875e-01 -8.257820301530000018e-01 -5.222227091009999933e-01 -1.176845672825000078e+00 6.820692904709999560e-01 2.229101488820000032e-01 5.118873098270000366e-01 -1.278050300402000072e+00 6.742330655129999961e-01 -1.094921091680000069e-01 5.595623277999999673e-02 5.122435712859999546e-01 -4.408956850869999999e-01 -7.054581484800000191e-02 -5.764835549340000531e-01 -3.458778165200000060e-02 4.061683553800000263e-02 2.668069737999999996e-03 9.971058285299999602e-02 -5.057477525310000166e-01 -1.190853540150000056e-01 -2.428554365110000002e-01 -1.352165544300000001e-02 3.837669205850000043e-01 3.644913177310000196e-01 5.393991403179999589e-01 1.425036468570000103e-01 -7.052721926760000537e-01 1.303910016994000109e+00 -2.055895276359999968e-01 -9.808078491900000528e-02 6.620788203100000380e-02 1.024442314290999967e+00 1.719142127499999895e-01 -8.627970394599999981e-02 -8.367805391200000553e-02 2.568867758749999730e-01 9.087622493699999693e-02 -1.191863795052999997e+00 -3.735650073999999959e-02 1.555205672390000127e-01 -8.342448072060000275e-01 -1.800758382600000096e-01 -9.719925797689999980e-01 1.378215181009999901e-01 -4.421966950280000197e-01 -7.737068342739999993e-01 5.889306603349999669e-01 2.615764578820000130e-01 -3.260009209999999939e-03 1.329729926600000008e-02 -3.762800721500000195e-02 1.020253372180000007e-01 -4.402265251200000035e-02 -7.634051905199999710e-02 5.381518111390000136e-01 -3.342048611539999992e-01 1.801082641839999998e-01 7.047268000299999891e-01 -5.045509068000000180e-02 -3.292356533099999871e-01 1.625167955559999877e-01 -9.321234298899999660e-02
2.800024370599999979e-01 3.487938774880000037e-01 -3.126557076200000007e-01 1.690850716550000021e-01 -3.554973629899999682e-02 -8.482803955000000062e-01 1.097510452094000000e+00 -2.006999732230000111e-01 4.905748787009999723e-01 -6.312108736960000410e-01 8.707332633790000331e-01 -5.404172869119999723e-01 1.575055729129999915e-01 -1.208130082810000006e-01 4.788850546339999958e-01 -4.522648946910000078e-01 3.225348256889999932e-01 -5.515018837699999787e-01 6.038591239749999673e-01 1.484715985810000083e-01 8.909352197000000237e-03 -5.048464655219999653e-01 -1.848249707040000023e-01 4.388965302500000276e-01 -6.257477696059999817e-01 1.857720702050000006e-01 4.675719002429999938e-01 -1.179811830949999973e-01 -4.409597103799999807e-01 -7.792948122630000141e-01 8.542422087300000078e-02 1.602436888650000113e-01 9.488967642710000039e-01 1.240495347360000000e-01 -4.193862856780000148e-01 -9.436407050339999936e-01 -1.797634938350000100e-01 1.138422265359999991e-01 7.952255697219999808e-01 1.487910358329999905e-01 -1.656085871199999837e-02 -2.899467460979999744e-01 3.257162745309999941e-01 -2.969687107810000115e-01 -4.570460092190000156e-01 4.213283519950000167e-01 6.752407707209999721e-01 5.752856259959999718e-01 3.815483239399999893e-01 -6.539903834939999605e-01 3.878728611110000002e-01 6.037510829129999479e-01 -2.403525225969999901e-01 -6.353203111990000096e-01 -4.203079114500000296e-02 -5.446777844469999907e-01 6.043485171600000011e-02 -3.940065649100000233e-01 -4.569555472310000144e-01 -2.012014145299999973e-02 -5.639827209359999927e-01 7.029097722089999722e-01 6.928072294060000358e-01 2.485765988649999980e-01 -2.023806564247999873e+00 8.375444460930000501e-01 -4.541022844999999947e-02 3.958333421279999764e-01 -4.350896971279999970e-01 -1.353421688961000013e+00 4.675777689480000165e-01 -9.368771968289999474e-01 1.412155867000000065e-01 3.445774745569999964e-01 -1.533560785209999999e-01 3.712606612089999758e-01 -4.822316437699999958e-01 -3.687291990559999899e-01 -1.660208489409999988e-01 7.267281604700000230e-02 4.018676979060000209e-01 4.925061626710000029e-01 5.608073177869999926e-01 5.043027577719999544e-01 -3.499758293660000241e-01 7.043813775410000533e-01 -5.098273442020000434e-01 -1.948670174190000048e-01 -1.316688761189999946e-01 1.056122048421000104e+00 3.605229942729999970e-01 -4.997695857750000248e-01 -7.285844691270000340e-01 5.056435423259999506e-01 3.706353828199999978e-02 -9.592629078359999895e-01 -5.007867066910000053e-01 -2.435030112800000077e-02 -5.744685415789999583e-01 4.511309997749999856e-01 -1.212779397088999955e+00 7.530708738639999567e-01 -4.315868106219999945e-01 -9.193756901890000055e-01 7.344589106319999727e-01 2.635275477919999942e-01 3.058795937800000142e-01 -7.786904987999999916e-02 -1.007728237399999928e-02 2.802219649969999726e-01 -9.571914026099999362e-02 7.423573353899999561e-02 7.128245959869999870e-01 6.529072938559999928e-01 -2.315967006799999894e-01 8.429745621140000145e-01 2.831714731070000268e-01 -5.116134387299999808e-01 6.523651043029999874e-01 -3.507984964079999823e-01