-1.228172730187654693e+01 -2.311272431990666121e+00 -2.550804501107057365e-01 -2.311272431990666121e+00 -1.455682145547975104e+01 -1.265848555851741386e+00 -2.550804501107057365e-01 -1.265848555851741386e+00 -1.219317763494776763e+01
-9.910819855548751889e+00 -2.325237542932487855e+00 -2.679322686904196393e-01 -2.325237542932487855e+00 -1.062047603742891688e+01 -1.160315702278266192e+00 -2.679322686904196393e-01 -1.160315702278266192e+00 -9.488393842863480643e+00
-7.537032691333862999e+00 -2.431095531295023093e+00 -2.375837454422352057e-01 -2.431095531295023093e+00 -7.870952517227955525e+00 -9.303944866233210265e-01 -2.375837454422352057e-01 -9.303944866233210265e-01 -9.052421814761219210e+00
-4.602870735187185147e+00 -2.814304227361649868e+00 -3.932431760859991798e-02 -2.814304227361649868e+00 -4.234643575320284015e+00 -7.885176723871055726e-01 -3.932431760859991798e-02 -7.885176723871055726e-01 -8.679205481221314855e+00
2.374112940316593090e-01 -3.228243583762143931e+00 -1.699167754584836798e-03 -3.228243583762143931e+00 1.787530282803464932e+00 -5.691535776986198503e-01 -1.699167754584836798e-03 -5.691535776986198503e-01 -4.040006641181884461e+00
5.452143241196949930e+00 -3.495179968650799385e+00 2.247048399252396522e-01 -3.495179968650799385e+00 9.243775520247236699e+00 -1.476525469282728709e-01 2.247048399252396522e-01 -1.476525469282728709e-01 3.398630672011917042e+00
6.621051724976690700e+00 -3.741707422725176535e+00 1.055871869591390233e+00 -3.741707422725176535e+00 1.189394286454478689e+01 1.915423177515142641e-02 1.055871869591390233e+00 1.915423177515142641e-02 7.340530197150851421e+00
4.578247637457333319e+00 -3.534466179723970480e+00 1.978788341855083122e+00 -3.534466179723970480e+00 1.159951964125612456e+01 -3.851348859185979578e-01 1.978788341855083122e+00 -3.851348859185979578e-01 5.703001209638076219e+00
3.506041255766321196e+00 -2.922801848736822805e+00 2.674687177170681274e+00 -2.922801848736822805e+00 1.030155781314017638e+01 -4.495036936752945800e-01 2.674687177170681274e+00 -4.495036936752945800e-01 2.767863027650609098e+00
3.590378531719789379e+00 -2.483764888036390950e+00 2.874592601062858410e+00 -2.483764888036390950e+00 7.422302664685602736e+00 -3.254716930594253599e-01 2.874592601062858410e+00 -3.254716930594253599e-01 1.375873826711519365e+00
5.407150973925391568e+00 -2.574185275678854801e+00 2.240808984229232248e+00 -2.574185275678854801e+00 7.945861867766880415e+00 -6.779475326821985393e-01 2.240808984229232248e+00 -6.779475326821985393e-01 1.930077530865602853e+00
8.204239060286498741e+00 -3.104611593295874439e+00 1.059520417559919547e+00 -3.104611593295874439e+00 1.000833652856231559e+01 -1.928312944629956949e+00 1.059520417559919547e+00 -1.928312944629956949e+00 4.589419153518065286e+00
6.562181956292556073e+00 -3.611923756672490438e+00 1.747435866298837348e-01 -3.611923756672490438e+00 9.884547745839169508e+00 -3.028076594903759133e+00 1.747435866298837348e-01 -3.028076594903759133e+00 3.469084074110999616e+00
-3.379393827675137851e-01 -3.972311865765136396e+00 -3.173361954795422823e-01 -3.972311865765136396e+00 2.984219610430084657e+00 -3.043856578262609247e+00 -3.173361954795422823e-01 -3.043856578262609247e+00 -4.191681060772732614e+00
-6.213503255422528682e+00 -4.036758655838213805e+00 -7.154372321287735259e-01 -4.036758655838213805e+00 -4.956541407429095436e+00 -2.917732289807474455e+00 -7.154372321287735259e-01 -2.917732289807474455e+00 -9.690264636420963029e+00
-9.646142728624605311e+00 -3.938517191140640694e+00 -8.691929593209577476e-01 -3.938517191140640694e+00 -9.760445104099170877e+00 -2.843881959795247827e+00 -8.691929593209577476e-01 -2.843881959795247827e+00 -1.210834831599489547e+01
-1.017671415857000561e+01 -3.682962115848188667e+00 -1.280773796433331446e+00 -3.682962115848188667e+00 -1.312792507943999887e+01 -2.491656387069003387e+00 -1.280773796433331446e+00 -2.491656387069003387e+00 -1.277367882248773867e+01
-1.006685135622351090e+01 -3.475079897953872177e+00 -2.083376971686492940e+00 -3.475079897953872177e+00 -1.499032336642303953e+01 -2.285073519032995826e+00 -2.083376971686492940e+00 -2.285073519032995826e+00 -1.084901616880186737e+01
-1.017851575776212059e+01 -3.459854450564485262e+00 -2.371074422046409502e+00 -3.459854450564485262e+00 -1.393375459707256425e+01 -2.253549283485063892e+00 -2.371074422046409502e+00 -2.253549283485063892e+00 -4.780440557364302734e+00
-8.111656419849133215e+00 -2.809133051935346348e+00 -2.542292508722949318e+00 -2.809133051935346348e+00 -1.084334198031469043e+01 -2.097328365438137610e+00 -2.542292508722949318e+00 -2.097328365438137610e+00 1.334415973725135318e+00
-4.040866730099821780e+00 -1.813547600168783358e+00 -2.854160832939943937e+00 -1.813547600168783358e+00 -6.618751664036035542e+00 -2.100638050903192333e+00 -2.854160832939943937e+00 -2.100638050903192333e+00 1.783285114238685187e+00
-2.063761470259916742e+00 -1.336048387615097477e+00 -2.950802320807257129e+00 -1.336048387615097477e+00 -3.594678760783995397e+00 -1.502532422430472137e+00 -2.950802320807257129e+00 -1.502532422430472137e+00 5.555403532518096155e-01
-2.172390874892010881e+00 -2.117853152230109171e+00 -1.918148452143201954e+00 -2.117853152230109171e+00 -1.896214906727861971e+00 -1.530408224065244127e+00 -1.918148452143201954e+00 -1.530408224065244127e+00 -5.060855585911873789e+00
-9.038406556769950084e-01 -3.023262705474754064e+00 -1.313621351241255120e+00 -3.023262705474754064e+00 -3.856667232500045617e-01 -1.954830154209020510e+00 -1.313621351241255120e+00 -1.954830154209020510e+00 -5.796806300324467642e+00
7.486624996341776361e-01 -3.521383521994717825e+00 -2.141521308038289995e+00 -3.521383521994717825e+00 9.725543528905320478e-01 -2.018599819607088452e+00 -2.141521308038289995e+00 -2.018599819607088452e+00 -2.051265534030404680e+00
3.156671858665711650e+00 -3.372819993388614268e+00 -2.855186296628394516e+00 -3.372819993388614268e+00 2.845684679460599220e+00 -2.054993651559747558e+00 -2.855186296628394516e+00 -2.054993651559747558e+00 1.390694532794645610e+00
5.881275499344260638e+00 -3.102959002990255843e+00 -3.477435312386726096e+00 -3.102959002990255843e+00 4.005783375743689589e+00 -1.862623397309962847e+00 -3.477435312386726096e+00 -1.862623397309962847e+00 2.816139714463988586e+00
8.894042320696417647e+00 -3.228006182909287425e+00 -4.382177515942237811e+00 -3.228006182909287425e+00 3.557380881516472915e+00 -1.386482393257497892e+00 -4.382177515942237811e+00 -1.386482393257497892e+00 -1.260068911636945233e+00
4.991219104610578050e+00 -2.735705729145251119e+00 -3.605033693504112957e+00 -2.735705729145251119e+00 4.816768439112549260e-01 -1.308699816910603442e+00 -3.605033693504112957e+00 -1.308699816910603442e+00 -4.347006642393420606e+00
1.496781788469751184e+00 -2.532894431806703484e+00 -2.108774477771056866e+00 -2.532894431806703484e+00 -1.435592689876443506e+00 -1.479958003690484247e+00 -2.108774477771056866e+00 -1.479958003690484247e+00 -3.409261312807987387e+00
-1.972111272977098206e+00 -2.319181318411158266e+00 -1.001024084359483757e+00 -2.319181318411158266e+00 -1.678253912143832682e+00 -1.367137368163543032e+00 -1.001024084359483757e+00 -1.367137368163543032e+00 -3.179981529279503949e+00
-4.469200220502071552e+00 -1.789270701066958624e+00 -6.277555961139043017e-01 -1.789270701066958624e+00 -3.018144211323508408e+00 -3.102683997541927918e-01 -6.277555961139043017e-01 -3.102683997541927918e-01 -2.735512831034219605e+00
-4.510758345737853503e+00 -1.558482695986573852e+00 -1.157483278197150467e+00 -1.558482695986573852e+00 -4.371612734865666816e+00 5.548269614100133085e-01 -1.157483278197150467e+00 5.548269614100133085e-01 -2.947681503919743928e+00
-2.844111347001450518e+00 -1.817898257213050872e+00 -1.115984330748787778e+00 -1.817898257213050872e+00 -5.804473919130238357e+00 3.298124238596945035e-01 -1.115984330748787778e+00 3.298124238596945035e-01 -4.911368880006427240e+00
-1.200100273737610745e+00 -2.609106025942955043e+00 -5.363146423542323182e-01 -2.609106025942955043e+00 -7.646689430520661190e+00 -5.499436555889847256e-01 -5.363146423542323182e-01 -5.499436555889847256e-01 -7.247509591735143530e+00
4.500970020322250242e-01 -2.748623580697940216e+00 -6.165305231154977195e-01 -2.748623580697940216e+00 -8.864211854860407414e+00 -1.506430573984263166e+00 -6.165305231154977195e-01 -1.506430573984263166e+00 -7.031510176106907650e+00
4.117054124082860866e+00 -2.289180618625115127e+00 -8.186499733915866273e-01 -2.289180618625115127e+00 -1.008126822628087815e+01 -2.201547486240540419e+00 -8.186499733915866273e-01 -2.201547486240540419e+00 -4.898451441779543281e+00
2.678438594277821050e+00 -2.388468676298602933e+00 -7.629092175869969239e-01 -2.388468676298602933e+00 -1.064100635138002282e+01 -2.429830494481809655e+00 -7.629092175869969239e-01 -2.429830494481809655e+00 -4.346266894260586433e+00
-9.570140013208884300e-01 -2.902803048815973508e+00 -1.601612556225777417e-01 -2.902803048815973508e+00 -8.593563404445918152e+00 -2.269061292105869487e+00 -1.601612556225777417e-01 -2.269061292105869487e+00 -2.706156889549145017e+00
-3.920085704536904192e-01 -3.301562667618683999e+00 5.851065904403656148e-01 -3.301562667618683999e+00 -3.623448441240300966e+00 -1.655733118216583755e+00 5.851065904403656148e-01 -1.655733118216583755e+00 8.650723898047630867e-01
-2.762944430789909256e-01 -3.351266922615192101e+00 5.700388503303165377e-01 -3.351266922615192101e+00 7.408261451474839054e-01 -9.088423928370633620e-01 5.700388503303165377e-01 -9.088423928370633620e-01 1.196712383394155310e+00
1.547525271834530869e-01 -2.881869405385773852e+00 2.568845841238875383e-01 -2.881869405385773852e+00 3.267916411484204087e+00 -6.422129069653201849e-01 2.568845841238875383e-01 -6.422129069653201849e-01 7.282979288072676249e-01
1.082703390936045507e+00 -1.953285657577003231e+00 2.188980767492953172e-01 -1.953285657577003231e+00 4.236475538196211588e+00 -7.061336764313351777e-01 2.188980767492953172e-01 -7.061336764313351777e-01 1.454948578434764883e+00
1.743691509152420327e+00 -1.505226567695725493e+00 3.191875714352229165e-01 -1.505226567695725493e+00 2.652214788513628463e+00 -6.432691776826827690e-01 3.191875714352229165e-01 -6.432691776826827690e-01 1.551339090349602712e+00
6.547278170181108914e-01 -1.981340850218326954e+00 -4.756256577686236893e-03 -1.981340850218326954e+00 2.707933319696107954e+00 -2.509701007558980401e-01 -4.756256577686236893e-03 -2.509701007558980401e-01 4.990001292667444743e-01
9.565863128325088893e-02 -2.495311028899806161e+00 -4.501237160465122455e-01 -2.495311028899806161e+00 5.185462150564438488e+00 -2.006548025042472760e-01 -4.501237160465122455e-01 -2.006548025042472760e-01 7.223239369280812783e-01
-5.900019581499328369e-01 -2.785804923488166551e+00 -3.379005421016740840e-01 -2.785804923488166551e+00 4.204525115919350853e+00 -9.837701138077887819e-01 -3.379005421016740840e-01 -9.837701138077887819e-01 1.699053647298565117e+00
-2.833274522001525852e+00 -2.994550847322890785e+00 -2.760933697637884543e-01 -2.994550847322890785e+00 2.693661202257876752e+00 -2.033302064777616991e+00 -2.760933697637884543e-01 -2.033302064777616991e+00 3.863271549988734344e-01
-3.959206461205329486e+00 -3.066019246398071552e+00 -7.102894494063639597e-01 -3.066019246398071552e+00 1.800214018375823288e+00 -2.752470245680146199e+00 -7.102894494063639597e-01 -2.752470245680146199e+00 -2.807742308656802521e+00
-3.733252086494079247e+00 -3.062025901436862707e+00 -8.764909086011670736e-01 -3.062025901436862707e+00 2.162530068299091113e+00 -2.792411994896408345e+00 -8.764909086011670736e-01 -2.792411994896408345e+00 -4.579885974568277618e+00
-3.391874915058641804e+00 -2.886743119665096113e+00 -4.843134454155959556e-01 -2.886743119665096113e+00 2.898940243782842874e+00 -2.685756983376983875e+00 -4.843134454155959556e-01 -2.685756983376983875e+00 -5.580199546937622657e+00
-3.525254605077373427e+00 -2.773373599496325781e+00 -1.600126473512630265e-01 -2.773373599496325781e+00 2.373214552955621226e+00 -2.617944436730165414e+00 -1.600126473512630265e-01 -2.617944436730165414e+00 -7.416075187785373224e+00
-2.611358808329763193e+00 -3.054163318236874147e+00 -7.866760840357319706e-01 -3.054163318236874147e+00 1.618689476501571356e+00 -2.238667585451448172e+00 -7.866760840357319706e-01 -2.238667585451448172e+00 -8.200116310469370617e+00
2.936011636314510009e-01 -3.032145513960214700e+00 -1.593671079650453848e+00 -3.032145513960214700e+00 2.703996824510931374e-01 -1.313983426382322905e+00 -1.593671079650453848e+00 -1.313983426382322905e+00 -8.507274207167485613e+00
1.306794393657129572e+00 -2.836330641873310299e+00 -5.703551035807250535e-01 -2.836330641873310299e+00 1.134191806428425792e-02 -2.653175319549094247e-01 -5.703551035807250535e-01 -2.653175319549094247e-01 -7.963830363340345109e+00
-1.131585972061356138e+00 -2.608635590557053963e+00 1.123000442333117244e+00 -2.608635590557053963e+00 -5.375521784955175075e-01 4.023199803291759857e-01 1.123000442333117244e+00 4.023199803291759857e-01 -6.223666478335717400e+00
-2.661247740685201979e+00 -2.596547227112486755e+00 1.166429044774385471e+00 -2.596547227112486755e+00 -7.125656280619245830e-01 7.292985662886706244e-01 1.166429044774385471e+00 7.292985662886706244e-01 -2.819383297858930160e+00
-4.477385715339014638e+00 -3.116604201542599650e+00 -2.938884142288188395e-01 -3.116604201542599650e+00 -6.681052937039082540e-01 6.123385243893908481e-01 -2.938884142288188395e-01 6.123385243893908481e-01 -5.705537261147328731e-01
-2.574949561705927703e+00 -3.626540032285136217e+00 -1.672620487863432093e+00 -3.626540032285136217e+00 -1.260813545694923654e+00 3.340473805810617036e-01 -1.672620487863432093e+00 3.340473805810617036e-01 9.903913096787883346e-05
1.798590016898891364e-01 -3.521826987868575287e+00 -1.050283530407809529e+00 -3.521826987868575287e+00 -1.809801423392527031e+00 -9.736070668066089395e-02 -1.050283530407809529e+00 -9.736070668066089395e-02 8.507192890162175170e-01
1.086096755021806359e+00 -3.230905548136929983e+00 1.558483560714371441e+00 -3.230905548136929983e+00 -1.478142524355607001e+00 -7.111118565690385251e-01 1.558483560714371441e+00 -7.111118565690385251e-01 2.137723488624790058e-01
8.048096167472068574e-01 -3.257904515002996604e+00 3.840606410851628016e+00 -3.257904515002996604e+00 4.804968486211599332e-01 -1.294442820264801952e+00 3.840606410851628016e+00 -1.294442820264801952e+00 7.469932567643042809e-01
-1.584484909467444580e-01 -2.879622529830138333e+00 3.345476133757177006e+00 -2.879622529830138333e+00 1.680143957236114982e+00 -1.599588775594303236e+00 3.345476133757177006e+00 -1.599588775594303236e+00 2.218414259664635679e+00
1.738849345443478578e+00 -2.235527863033396123e+00 1.392320924478142263e+00 -2.235527863033396123e+00 2.496373652452981595e+00 -1.131110890343683506e+00 1.392320924478142263e+00 -1.131110890343683506e+00 3.579676311045079995e+00
-4.481776243935317074e-03 -3.207649609548317127e+00 3.546746190542952593e-01 -3.207649609548317127e+00 4.551689051107842277e-01 -7.340691191825079454e-01 3.546746190542952593e-01 -7.340691191825079454e-01 2.362016512328135143e+00
-1.425037740880554515e-01 -4.375528400933896833e+00 -1.264212780309307282e-01 -4.375528400933896833e+00 -1.222628393925998536e+00 -5.550115847350975962e-01 -1.264212780309307282e-01 -5.550115847350975962e-01 1.299544657545590232e+00
1.207272839344182946e+00 -3.799362809682941045e+00 -2.281125098808585716e-01 -3.799362809682941045e+00 -8.235205471399882349e-01 -3.688465534594069228e-01 -2.281125098808585716e-01 -3.688465534594069228e-01 1.057900128260636619e+00
4.066695773124409108e+00 -2.086006880732417024e+00 5.040337135198107443e-01 -2.086006880732417024e+00 1.527317985894177665e+00 1.286990279553935079e-01 5.040337135198107443e-01 1.286990279553935079e-01 -5.182124843369781964e-01
3.450648173515074024e+00 -4.476424045620052139e-01 1.563412208169716822e+00 -4.476424045620052139e-01 6.936662667669110660e-02 6.149106217000579466e-01 1.563412208169716822e+00 6.149106217000579466e-01 -2.370483780866065704e+00
-2.590599258955076589e+00 -8.583138542481416611e-01 2.013422493703853622e+00 -8.583138542481416611e-01 -8.065058273305096392e+00 1.247792272601518704e+00 2.013422493703853622e+00 1.247792272601518704e+00 -6.358417949843949479e+00
-4.451668129994081902e+00 -9.263780762018118953e-01 1.927159823020994756e+00 -9.263780762018118953e-01 -1.250475368656041120e+01 1.123287883488880201e+00 1.927159823020994756e+00 1.123287883488880201e+00 -8.359903270381623841e+00
-1.265929079636852084e+00 -5.826058345527577176e-01 2.918561314598917988e+00 -5.826058345527577176e-01 -1.346772632086321053e+01 8.120016122390676383e-01 2.918561314598917988e+00 8.120016122390676383e-01 -9.514342734777569532e+00
3.185694593473864078e+00 -1.259752477699518813e+00 4.360917986922371981e+00 -1.259752477699518813e+00 -1.331667396954577853e+01 6.642176117126699086e-01 4.360917986922371981e+00 6.642176117126699086e-01 -8.474616221990004306e+00
1.727456499718081018e+00 -8.836260730784776252e-01 4.468224401482099317e+00 -8.836260730784776252e-01 -1.288597217922820981e+01 2.596214764495445304e-01 4.468224401482099317e+00 2.596214764495445304e-01 -5.745430511193977630e+00
4.492658666643680743e-01 -4.481669770736921299e-01 3.909275116020071827e+00 -4.481669770736921299e-01 -1.081865489650622436e+01 -2.922948572791019273e-01 3.909275116020071827e+00 -2.922948572791019273e-01 -5.045098658478380571e+00
-3.262947863662520875e-01 -9.624962266344188055e-01 3.475033313440007987e+00 -9.624962266344188055e-01 -7.974179060553559850e+00 -5.706564669258239464e-01 3.475033313440007987e+00 -5.706564669258239464e-01 -1.034422768986615004e+00
-1.535327729036081612e+00 -7.907822554400087967e-01 4.067639518682167221e+00 -7.907822554400087967e-01 -2.455822207837557336e+00 -8.974070735086913109e-01 4.067639518682167221e+00 -8.974070735086913109e-01 -4.948499716292253242e-02
8.564922475607382735e-01 -8.469529640645695467e-01 4.444785046437246478e+00 -8.469529640645695467e-01 4.487315928031725853e+00 -1.493443306375570101e+00 4.444785046437246478e+00 -1.493443306375570101e+00 2.155825074912173456e+00
2.093641244283163783e+00 -7.301503305352079476e-01 4.873167979253969939e+00 -7.301503305352079476e-01 4.710372621067493881e+00 -1.390366594264250022e+00 4.873167979253969939e+00 -1.390366594264250022e+00 5.837227801266791971e+00
-1.383141760863287884e+00 -3.762380945503944751e-01 4.629265043723214568e+00 -3.762380945503944751e-01 -3.393460251236321223e+00 -1.565063638705463722e+00 4.629265043723214568e+00 -1.565063638705463722e+00 7.236717974344250237e+00
-5.992818272435987303e+00 -5.406117295253843880e-01 3.275711658642436852e+00 -5.406117295253843880e-01 -1.178768537722115717e+01 -1.629816600640084268e+00 3.275711658642436852e+00 -1.629816600640084268e+00 6.379423924800078360e-01
-5.295638408100828975e+00 -9.852114773757884025e-01 2.064980615184502710e+00 -9.852114773757884025e-01 -1.390444486189945295e+01 -8.958440884374873070e-01 2.064980615184502710e+00 -8.958440884374873070e-01 -2.683111453257925660e+00
-6.687948567675148226e+00 -1.817857201121834132e+00 1.631648729750539317e+00 -1.817857201121834132e+00 -1.284419894719580313e+01 -6.419201301537394988e-01 1.631648729750539317e+00 -6.419201301537394988e-01 -2.154127186612641243e+00
-7.582674341906908921e+00 -2.028488791008465242e+00 1.538051463713638656e+00 -2.028488791008465242e+00 -1.184017761957689885e+01 -1.063574453005135534e-01 1.538051463713638656e+00 -1.063574453005135534e-01 -1.855159245881025543e+00
-2.672110144618196959e+00 -2.021791682251741662e+00 1.558583818693658030e+00 -2.021791682251741662e+00 -8.170063891668043254e+00 4.706890415975134023e-01 1.558583818693658030e+00 4.706890415975134023e-01 7.109621396119607528e-01
-7.484735247551693726e-01 -3.019494026723139601e+00 1.589093181235991858e+00 -3.019494026723139601e+00 -5.721808380316269371e+00 -2.788815414314628205e-01 1.589093181235991858e+00 -2.788815414314628205e-01 1.715382604696417568e+00
-2.677691030230514802e+00 -3.235880126004894386e+00 1.755382403020967930e+00 -3.235880126004894386e+00 -4.167698227965145996e+00 -7.470311584313249487e-01 1.755382403020967930e+00 -7.470311584313249487e-01 9.913111453626413661e-02
-3.737878486643314790e+00 -2.623925740471768631e+00 2.094188037888748966e+00 -2.623925740471768631e+00 -1.324966472620092928e+00 -1.164970131334962078e+00 2.094188037888748966e+00 -1.164970131334962078e+00 -5.593127431570984465e-01
-7.652915222906520043e-01 -1.755913788491338945e+00 1.936901209812899705e+00 -1.755913788491338945e+00 2.727978583882164187e+00 -2.095744954671568294e+00 1.936901209812899705e+00 -2.095744954671568294e+00 3.418520070417406131e+00
2.486832602552891736e+00 -9.706543339898503486e-01 1.211096430178743244e+00 -9.706543339898503486e-01 7.005414203852625477e+00 -2.319149524000783114e+00 1.211096430178743244e+00 -2.319149524000783114e+00 5.511349444517108509e+00
1.645421322425788979e+00 -1.139288414566038243e+00 8.480489927722687504e-01 -1.139288414566038243e+00 8.103502437769551037e+00 -2.057940421533902775e+00 8.480489927722687504e-01 -2.057940421533902775e+00 5.824707947496644778e+00
3.005690097687640505e-01 -1.836832132314486499e+00 1.242164601135540281e+00 -1.836832132314486499e+00 5.391303539772773767e+00 -1.976475022569293083e+00 1.242164601135540281e+00 -1.976475022569293083e+00 3.258776735518461365e+00
-2.304433941619447701e+00 -2.666814804103426528e+00 1.168783617589363333e+00 -2.666814804103426528e+00 4.211762852344025809e+00 -1.484819058396523728e+00 1.168783617589363333e+00 -1.484819058396523728e+00 -7.739404754189604940e-02
-4.957816752452067099e+00 -2.997995051414619194e+00 2.426309490688851461e-02 -2.997995051414619194e+00 2.467835477935895305e+00 -7.917281871424788342e-01 2.426309490688851461e-02 -7.917281871424788342e-01 -2.770503093589721910e+00
-3.604557199054809313e+00 -2.585530624461031657e+00 -5.904521509274357483e-01 -2.585530624461031657e+00 5.367210967345767969e-01 -4.646251411296083433e-01 -5.904521509274357483e-01 -4.646251411296083433e-01 -2.612995056989965370e+00
-4.210274817919382073e+00 -2.649693264576947538e+00 -5.838972200364686005e-01 -2.649693264576947538e+00 -9.864615648699404105e-01 -5.275239706940572093e-01 -5.838972200364686005e-01 -5.275239706940572093e-01 -2.553689730314242290e+00
-4.327427544758607247e+00 -3.141778964453149747e+00 -5.607819933436767323e-01 -3.141778964453149747e+00 -2.584181174056644270e+00 -9.077199968580202949e-01 -5.607819933436767323e-01 -9.077199968580202949e-01 -3.342071808276435796e+00
-3.967131741246296084e+00 -3.022225383131393883e+00 -9.681074155699750383e-01 -3.022225383131393883e+00 -1.841855875188838310e+00 -1.271615357117158673e+00 -9.681074155699750383e-01 -1.271615357117158673e+00 -8.359529781109815705e-01
-4.442265224101295651e+00 -2.736534157550317037e+00 -1.074527273141187900e+00 -2.736534157550317037e+00 -8.680051642005387480e-01 -8.655565212667178931e-01 -1.074527273141187900e+00 -8.655565212667178931e-01 1.561581766713509234e+00
-6.336757373714259067e+00 -2.359242801020892344e+00 -7.959884883566389346e-01 -2.359242801020892344e+00 -2.676816561861699792e-03 -3.741185521268277081e-01 -7.959884883566389346e-01 -3.741185521268277081e-01 2.166725284546956676e+00
-7.526092277144230458e+00 -2.090163655479941873e+00 -1.635499723035095165e+00 -2.090163655479941873e+00 -3.807723394241332437e-01 -1.073375979636493893e+00 -1.635499723035095165e+00 -1.073375979636493893e+00 -2.121329243192160152e-01
-2.775196131215624362e+00 -2.234106083014789412e+00 -2.050372855846842146e+00 -2.234106083014789412e+00 -7.586990548919176902e-01 -2.076034608857267649e+00 -2.050372855846842146e+00 -2.076034608857267649e+00 -1.124697687091752663e+00
-3.592540191895983170e+00 -2.858794182666498873e+00 -2.447156914720310716e+00 -2.858794182666498873e+00 -5.570879212387587209e-01 -2.672430262008180790e+00 -2.447156914720310716e+00 -2.672430262008180790e+00 -2.184659281334550673e+00
-2.984822365719924431e+00 -3.432504143195493018e+00 -2.274485050613723303e+00 -3.432504143195493018e+00 -1.547143418782451381e-02 -2.900597089043909893e+00 -2.274485050613723303e+00 -2.900597089043909893e+00 -1.478500506092556233e+00
1.605683568450384735e+00 -3.982441255963252491e+00 -2.010236991525051309e+00 -3.982441255963252491e+00 1.841393478364797609e+00 -2.449118069012036880e+00 -2.010236991525051309e+00 -2.449118069012036880e+00 7.468372734093928766e-01
4.393536810863278852e+00 -4.110135697976661895e+00 -2.538829289174979298e+00 -4.110135697976661895e+00 3.333135031019139660e+00 -2.055478889914132967e+00 -2.538829289174979298e+00 -2.055478889914132967e+00 3.837098327981536272e+00
5.946991417389987156e+00 -3.522784289922880507e+00 -3.078324473565011044e+00 -3.522784289922880507e+00 1.799593579680661248e+00 -2.477455156796608104e+00 -3.078324473565011044e+00 -2.477455156796608104e+00 4.331761806830478179e+00
6.005843300359954284e+00 -2.532360797176739897e+00 -2.901649315018195452e+00 -2.532360797176739897e+00 9.157561857206718559e-01 -3.419272156824647801e+00 -2.901649315018195452e+00 -3.419272156824647801e+00 3.050306209056970363e+00
4.183278067765988872e+00 -2.227694400908938110e+00 -2.755194510404086028e+00 -2.227694400908938110e+00 -2.041251808661455946e+00 -3.826002422059323838e+00 -2.755194510404086028e+00 -3.826002422059323838e+00 2.261152477297089791e-01
1.516499178451998109e+00 -2.891157050925936556e+00 -3.108433395957778345e+00 -2.891157050925936556e+00 -6.197377418626656365e+00 -3.181847562268937946e+00 -3.108433395957778345e+00 -3.181847562268937946e+00 -3.272698782114979110e+00
1.616003315661410200e+00 -3.345230284592084491e+00 -2.891256050612798223e+00 -3.345230284592084491e+00 -6.297436676383465937e+00 -2.844221265361532858e+00 -2.891256050612798223e+00 -2.844221265361532858e+00 -2.572984026471361041e+00
1.030892365542575018e+00 -2.687111567362421738e+00 -2.003485896679541245e+00 -2.687111567362421738e+00 -5.614277212223735880e+00 -3.114972161989604249e+00 -2.003485896679541245e+00 -3.114972161989604249e+00 1.295836193151409299e+00
-2.137294149538842447e+00 -2.080385530359742496e+00 -1.983791344775865273e+00 -2.080385530359742496e+00 -6.748988909904942268e+00 -3.150362150685514617e+00 -1.983791344775865273e+00 -3.150362150685514617e+00 2.419913457715034522e+00
-5.784248212901856867e+00 -1.437754644783781011e+00 -3.419978162622465234e+00 -1.437754644783781011e+00 -1.012000102445028915e+01 -3.374927316998006521e+00 -3.419978162622465234e+00 -3.374927316998006521e+00 -4.464216214740511113e+00
-4.646163501123644402e+00 -3.940408243018270196e-01 -4.563899913385105478e+00 -3.940408243018270196e-01 -1.088874151793221934e+01 -2.893524168007503228e+00 -4.563899913385105478e+00 -2.893524168007503228e+00 -8.946457918893887751e+00
-1.622988389838768253e+00 3.043266387997574096e-01 -5.689585922576453569e+00 3.043266387997574096e-01 -1.177556195969426689e+01 -2.334375725457379591e+00 -5.689585922576453569e+00 -2.334375725457379591e+00 -7.677256674414275395e+00
3.440904339426288594e+00 9.631837110129725099e-01 -6.509492109420864203e+00 9.631837110129725099e-01 -9.644515764762795484e+00 -2.044572644579405463e+00 -6.509492109420864203e+00 -2.044572644579405463e+00 -2.696179082230084845e+00
8.367774612091047004e+00 1.202320656132649379e+00 -6.159923826989826878e+00 1.202320656132649379e+00 -5.730347581286562075e+00 -2.225552846657079531e+00 -6.159923826989826878e+00 -2.225552846657079531e+00 -5.927313542851013750e-01
7.534976746124761426e+00 1.221106949985365286e+00 -5.774167943326538044e+00 1.221106949985365286e+00 -1.568153105549505710e+00 -2.260843331437648374e+00 -5.774167943326538044e+00 -2.260843331437648374e+00 6.525151899369198150e-01
-7.943722611618443397e-01 1.341935360435620783e+00 -4.858033954843072877e+00 1.341935360435620783e+00 -1.984695349647388918e+00 -1.764130565577714638e+00 -4.858033954843072877e+00 -1.764130565577714638e+00 -4.971764184998135327e+00
-6.701598557272156143e+00 9.501881290202713881e-01 -3.549208032135221735e+00 9.501881290202713881e-01 -7.751508490652552652e+00 -1.474610888178859547e+00 -3.549208032135221735e+00 -1.474610888178859547e+00 -1.197275188267303037e+01
-6.007878329039581189e+00 3.512073197383557277e-01 -2.217022756455338417e+00 3.512073197383557277e-01 -8.075705900728459952e+00 -1.868352652130893299e+00 -2.217022756455338417e+00 -1.868352652130893299e+00 -1.189204554315779561e+01
-3.509205278779554238e+00 -2.847975836830993202e-01 -1.542766792248549734e+00 -2.847975836830993202e-01 -8.168088996467542273e+00 -2.477961681428030971e+00 -1.542766792248549734e+00 -2.477961681428030971e+00 -8.985493616195045163e+00
2.319750435037035707e+00 -1.267753957621734262e+00 -5.406062497523509425e-01 -1.267753957621734262e+00 -4.672714477021117752e+00 -2.316070760477313861e+00 -5.406062497523509425e-01 -2.316070760477313861e+00 -2.860489916713534697e+00
9.118002129300952774e+00 -1.955616555826086289e+00 9.738196274522940010e-01 -1.955616555826086289e+00 2.838954912330756697e-01 -1.818755602928742610e+00 9.738196274522940010e-01 -1.818755602928742610e+00 2.431114179669561892e+00
7.228022487770028093e+00 -2.328408207078857650e+00 1.166135689369379502e+00 -2.328408207078857650e+00 -7.943194730612998522e-02 -1.633097917680646161e+00 1.166135689369379502e+00 -1.633097917680646161e+00 4.546478317394527124e+00
3.120144797222280442e+00 -2.752665675400745027e+00 1.131012520045167724e+00 -2.752665675400745027e+00 -8.938464435342585723e-01 -1.512335669014695183e+00 1.131012520045167724e+00 -1.512335669014695183e+00 9.924683936366409664e-01
4.243618029031132721e+00 -2.879684108452941871e+00 2.192580705583496936e+00 -2.879684108452941871e+00 2.021874338036261154e+00 -1.364688166856695029e+00 2.192580705583496936e+00 -1.364688166856695029e+00 -1.309950757392212894e+00
8.071609788645016659e-01 -2.352061353783224895e+00 1.316818180614153455e+00 -2.352061353783224895e+00 6.160373417738890467e+00 -1.944858811114217545e+00 1.316818180614153455e+00 -1.944858811114217545e+00 -1.643357672331624997e+00