
5000 atoms
15 atom types
   0.0000000000   40.0654600000 xlo xhi
   0.0000000000   40.0654600000 ylo yhi
   0.0000000000   40.0654600000 zlo zhi
   0.0000000000    0.0000000000    0.0000000000 xy xz yz

Atoms # atomic

     1      2    0.2000000000    0.2000000000    0.2000000000
     2      2    0.2000000000    0.2000000000    4.2065460000
     3      2    0.2000000000    0.2000000000    8.2130920000
     4      2    0.2000000000    0.2000000000   12.2196380000
     5      2    0.2000000000    0.2000000000   16.2261840000
     6      2    0.2000000000    0.2000000000   20.2327300000
     7      2    0.2000000000    0.2000000000   24.2392760000
     8      2    0.2000000000    0.2000000000   28.2458220000
     9      2    0.2000000000    0.2000000000   32.2523680000
    10      2    0.2000000000    0.2000000000   36.2589140000
    11      2    0.2000000000    4.2065460000    0.2000000000
    12      2    0.2000000000    4.2065460000    4.2065460000
    13      2    0.2000000000    4.2065460000    8.2130920000
    14      2    0.2000000000    4.2065460000   12.2196380000
    15      2    0.2000000000    4.2065460000   16.2261840000
    16      2    0.2000000000    4.2065460000   20.2327300000
    17      2    0.2000000000    4.2065460000   24.2392760000
    18      2    0.2000000000    4.2065460000   28.2458220000
    19      2    0.2000000000    4.2065460000   32.2523680000
    20      2    0.2000000000    4.2065460000   36.2589140000
    21      2    0.2000000000    8.2130920000    0.2000000000
    22      2    0.2000000000    8.2130920000    4.2065460000
    23      2    0.2000000000    8.2130920000    8.2130920000
    24      2    0.2000000000    8.2130920000   12.2196380000
    25      2    0.2000000000    8.2130920000   16.2261840000
    26      2    0.2000000000    8.2130920000   20.2327300000
    27      2    0.2000000000    8.2130920000   24.2392760000
    28      2    0.2000000000    8.2130920000   28.2458220000
    29      2    0.2000000000    8.2130920000   32.2523680000
    30      2    0.2000000000    8.2130920000   36.2589140000
    31      2    0.2000000000   12.2196380000    0.2000000000
    32      2    0.2000000000   12.2196380000    4.2065460000
    33      2    0.2000000000   12.2196380000    8.2130920000
    34      2    0.2000000000   12.2196380000   12.2196380000
    35      2    0.2000000000   12.2196380000   16.2261840000
    36      2    0.2000000000   12.2196380000   20.2327300000
    37      2    0.2000000000   12.2196380000   24.2392760000
    38      2    0.2000000000   12.2196380000   28.2458220000
    39      2    0.2000000000   12.2196380000   32.2523680000
    40      2    0.2000000000   12.2196380000   36.2589140000
    41      2    0.2000000000   16.2261840000    0.2000000000
    42      2    0.2000000000   16.2261840000    4.2065460000
    43      2    0.2000000000   16.2261840000    8.2130920000
    44      2    0.2000000000   16.2261840000   12.2196380000
    45      2    0.2000000000   16.2261840000   16.2261840000
    46      2    0.2000000000   16.2261840000   20.2327300000
    47      2    0.2000000000   16.2261840000   24.2392760000
    48      2    0.2000000000   16.2261840000   28.2458220000
    49      2    0.2000000000   16.2261840000   32.2523680000
    50      2    0.2000000000   16.2261840000   36.2589140000
    51      2    0.2000000000   20.2327300000    0.2000000000
    52      2    0.2000000000   20.2327300000    4.2065460000
    53      2    0.2000000000   20.2327300000    8.2130920000
    54      2    0.2000000000   20.2327300000   12.2196380000
    55      2    0.2000000000   20.2327300000   16.2261840000
    56      2    0.2000000000   20.2327300000   20.2327300000
    57      2    0.2000000000   20.2327300000   24.2392760000
    58      2    0.2000000000   20.2327300000   28.2458220000
    59      2    0.2000000000   20.2327300000   32.2523680000
    60      2    0.2000000000   20.2327300000   36.2589140000
    61      2    0.2000000000   24.2392760000    0.2000000000
    62      2    0.2000000000   24.2392760000    4.2065460000
    63      2    0.2000000000   24.2392760000    8.2130920000
    64      2    0.2000000000   24.2392760000   12.2196380000
    65      2    0.2000000000   24.2392760000   16.2261840000
    66      2    0.2000000000   24.2392760000   20.2327300000
    67      2    0.2000000000   24.2392760000   24.2392760000
    68      2    0.2000000000   24.2392760000   28.2458220000
    69      2    0.2000000000   24.2392760000   32.2523680000
    70      2    0.2000000000   24.2392760000   36.2589140000
    71      2    0.2000000000   28.2458220000    0.2000000000
    72      2    0.2000000000   28.2458220000    4.2065460000
    73      2    0.2000000000   28.2458220000    8.2130920000
    74      2    0.2000000000   28.2458220000   12.2196380000
    75      2    0.2000000000   28.2458220000   16.2261840000
    76      2    0.2000000000   28.2458220000   20.2327300000
    77      2    0.2000000000   28.2458220000   24.2392760000
    78      2    0.2000000000   28.2458220000   28.2458220000
    79      2    0.2000000000   28.2458220000   32.2523680000
    80      2    0.2000000000   28.2458220000   36.2589140000
    81      2    0.2000000000   32.2523680000    0.2000000000
    82      2    0.2000000000   32.2523680000    4.2065460000
    83      2    0.2000000000   32.2523680000    8.2130920000
    84      2    0.2000000000   32.2523680000   12.2196380000
    85      2    0.2000000000   32.2523680000   16.2261840000
    86      2    0.2000000000   32.2523680000   20.2327300000
    87      2    0.2000000000   32.2523680000   24.2392760000
    88      2    0.2000000000   32.2523680000   28.2458220000
    89      2    0.2000000000   32.2523680000   32.2523680000
    90      2    0.2000000000   32.2523680000   36.2589140000
    91      2    0.2000000000   36.2589140000    0.2000000000
    92      2    0.2000000000   36.2589140000    4.2065460000
    93      2    0.2000000000   36.2589140000    8.2130920000
    94      2    0.2000000000   36.2589140000   12.2196380000
    95      2    0.2000000000   36.2589140000   16.2261840000
    96      2    0.2000000000   36.2589140000   20.2327300000
    97      2    0.2000000000   36.2589140000   24.2392760000
    98      2    0.2000000000   36.2589140000   28.2458220000
    99      2    0.2000000000   36.2589140000   32.2523680000
   100      2    0.2000000000   36.2589140000   36.2589140000
   101      2    4.2065460000    0.2000000000    0.2000000000
   102      2    4.2065460000    0.2000000000    4.2065460000
   103      2    4.2065460000    0.2000000000    8.2130920000
   104      2    4.2065460000    0.2000000000   12.2196380000
   105      2    4.2065460000    0.2000000000   16.2261840000
   106      2    4.2065460000    0.2000000000   20.2327300000
   107      2    4.2065460000    0.2000000000   24.2392760000
   108      2    4.2065460000    0.2000000000   28.2458220000
   109      2    4.2065460000    0.2000000000   32.2523680000
   110      2    4.2065460000    0.2000000000   36.2589140000
   111      2    4.2065460000    4.2065460000    0.2000000000
   112      2    4.2065460000    4.2065460000    4.2065460000
   113      2    4.2065460000    4.2065460000    8.2130920000
   114      2    4.2065460000    4.2065460000   12.2196380000
   115      2    4.2065460000    4.2065460000   16.2261840000
   116      2    4.2065460000    4.2065460000   20.2327300000
   117      2    4.2065460000    4.2065460000   24.2392760000
   118      2    4.2065460000    4.2065460000   28.2458220000
   119      2    4.2065460000    4.2065460000   32.2523680000
   120      2    4.2065460000    4.2065460000   36.2589140000
   121      2    4.2065460000    8.2130920000    0.2000000000
   122      2    4.2065460000    8.2130920000    4.2065460000
   123      2    4.2065460000    8.2130920000    8.2130920000
   124      2    4.2065460000    8.2130920000   12.2196380000
   125      2    4.2065460000    8.2130920000   16.2261840000
   126      2    4.2065460000    8.2130920000   20.2327300000
   127      2    4.2065460000    8.2130920000   24.2392760000
   128      2    4.2065460000    8.2130920000   28.2458220000
   129      2    4.2065460000    8.2130920000   32.2523680000
   130      2    4.2065460000    8.2130920000   36.2589140000
   131      2    4.2065460000   12.2196380000    0.2000000000
   132      2    4.2065460000   12.2196380000    4.2065460000
   133      2    4.2065460000   12.2196380000    8.2130920000
   134      2    4.2065460000   12.2196380000   12.2196380000
   135      2    4.2065460000   12.2196380000   16.2261840000
   136      2    4.2065460000   12.2196380000   20.2327300000
   137      2    4.2065460000   12.2196380000   24.2392760000
   138      2    4.2065460000   12.2196380000   28.2458220000
   139      2    4.2065460000   12.2196380000   32.2523680000
   140      2    4.2065460000   12.2196380000   36.2589140000
   141      2    4.2065460000   16.2261840000    0.2000000000
   142      2    4.2065460000   16.2261840000    4.2065460000
   143      2    4.2065460000   16.2261840000    8.2130920000
   144      2    4.2065460000   16.2261840000   12.2196380000
   145      2    4.2065460000   16.2261840000   16.2261840000
   146      2    4.2065460000   16.2261840000   20.2327300000
   147      2    4.2065460000   16.2261840000   24.2392760000
   148      2    4.2065460000   16.2261840000   28.2458220000
   149      2    4.2065460000   16.2261840000   32.2523680000
   150      2    4.2065460000   16.2261840000   36.2589140000
   151      2    4.2065460000   20.2327300000    0.2000000000
   152      2    4.2065460000   20.2327300000    4.2065460000
   153      2    4.2065460000   20.2327300000    8.2130920000
   154      2    4.2065460000   20.2327300000   12.2196380000
   155      2    4.2065460000   20.2327300000   16.2261840000
   156      2    4.2065460000   20.2327300000   20.2327300000
   157      2    4.2065460000   20.2327300000   24.2392760000
   158      2    4.2065460000   20.2327300000   28.2458220000
   159      2    4.2065460000   20.2327300000   32.2523680000
   160      2    4.2065460000   20.2327300000   36.2589140000
   161      2    4.2065460000   24.2392760000    0.2000000000
   162      2    4.2065460000   24.2392760000    4.2065460000
   163      2    4.2065460000   24.2392760000    8.2130920000
   164      2    4.2065460000   24.2392760000   12.2196380000
   165      2    4.2065460000   24.2392760000   16.2261840000
   166      2    4.2065460000   24.2392760000   20.2327300000
   167      2    4.2065460000   24.2392760000   24.2392760000
   168      2    4.2065460000   24.2392760000   28.2458220000
   169      2    4.2065460000   24.2392760000   32.2523680000
   170      2    4.2065460000   24.2392760000   36.2589140000
   171      2    4.2065460000   28.2458220000    0.2000000000
   172      2    4.2065460000   28.2458220000    4.2065460000
   173      2    4.2065460000   28.2458220000    8.2130920000
   174      2    4.2065460000   28.2458220000   12.2196380000
   175      2    4.2065460000   28.2458220000   16.2261840000
   176      2    4.2065460000   28.2458220000   20.2327300000
   177      2    4.2065460000   28.2458220000   24.2392760000
   178      2    4.2065460000   28.2458220000   28.2458220000
   179      2    4.2065460000   28.2458220000   32.2523680000
   180      2    4.2065460000   28.2458220000   36.2589140000
   181      2    4.2065460000   32.2523680000    0.2000000000
   182      2    4.2065460000   32.2523680000    4.2065460000
   183      2    4.2065460000   32.2523680000    8.2130920000
   184      2    4.2065460000   32.2523680000   12.2196380000
   185      2    4.2065460000   32.2523680000   16.2261840000
   186      2    4.2065460000   32.2523680000   20.2327300000
   187      2    4.2065460000   32.2523680000   24.2392760000
   188      2    4.2065460000   32.2523680000   28.2458220000
   189      2    4.2065460000   32.2523680000   32.2523680000
   190      2    4.2065460000   32.2523680000   36.2589140000
   191      2    4.2065460000   36.2589140000    0.2000000000
   192      2    4.2065460000   36.2589140000    4.2065460000
   193      2    4.2065460000   36.2589140000    8.2130920000
   194      2    4.2065460000   36.2589140000   12.2196380000
   195      2    4.2065460000   36.2589140000   16.2261840000
   196      2    4.2065460000   36.2589140000   20.2327300000
   197      2    4.2065460000   36.2589140000   24.2392760000
   198      2    4.2065460000   36.2589140000   28.2458220000
   199      2    4.2065460000   36.2589140000   32.2523680000
   200      2    4.2065460000   36.2589140000   36.2589140000
   201      2    8.2130920000    0.2000000000    0.2000000000
   202      2    8.2130920000    0.2000000000    4.2065460000
   203      2    8.2130920000    0.2000000000    8.2130920000
   204      2    8.2130920000    0.2000000000   12.2196380000
   205      2    8.2130920000    0.2000000000   16.2261840000
   206      2    8.2130920000    0.2000000000   20.2327300000
   207      2    8.2130920000    0.2000000000   24.2392760000
   208      2    8.2130920000    0.2000000000   28.2458220000
   209      2    8.2130920000    0.2000000000   32.2523680000
   210      2    8.2130920000    0.2000000000   36.2589140000
   211      2    8.2130920000    4.2065460000    0.2000000000
   212      2    8.2130920000    4.2065460000    4.2065460000
   213      2    8.2130920000    4.2065460000    8.2130920000
   214      2    8.2130920000    4.2065460000   12.2196380000
   215      2    8.2130920000    4.2065460000   16.2261840000
   216      2    8.2130920000    4.2065460000   20.2327300000
   217      2    8.2130920000    4.2065460000   24.2392760000
   218      2    8.2130920000    4.2065460000   28.2458220000
   219      2    8.2130920000    4.2065460000   32.2523680000
   220      2    8.2130920000    4.2065460000   36.2589140000
   221      2    8.2130920000    8.2130920000    0.2000000000
   222      2    8.2130920000    8.2130920000    4.2065460000
   223      2    8.2130920000    8.2130920000    8.2130920000
   224      2    8.2130920000    8.2130920000   12.2196380000
   225      2    8.2130920000    8.2130920000   16.2261840000
   226      2    8.2130920000    8.2130920000   20.2327300000
   227      2    8.2130920000    8.2130920000   24.2392760000
   228      2    8.2130920000    8.2130920000   28.2458220000
   229      2    8.2130920000    8.2130920000   32.2523680000
   230      2    8.2130920000    8.2130920000   36.2589140000
   231      2    8.2130920000   12.2196380000    0.2000000000
   232      2    8.2130920000   12.2196380000    4.2065460000
   233      2    8.2130920000   12.2196380000    8.2130920000
   234      2    8.2130920000   12.2196380000   12.2196380000
   235      2    8.2130920000   12.2196380000   16.2261840000
   236      2    8.2130920000   12.2196380000   20.2327300000
   237      2    8.2130920000   12.2196380000   24.2392760000
   238      2    8.2130920000   12.2196380000   28.2458220000
   239      2    8.2130920000   12.2196380000   32.2523680000
   240      2    8.2130920000   12.2196380000   36.2589140000
   241      2    8.2130920000   16.2261840000    0.2000000000
   242      2    8.2130920000   16.2261840000    4.2065460000
   243      2    8.2130920000   16.2261840000    8.2130920000
   244      2    8.2130920000   16.2261840000   12.2196380000
   245      2    8.2130920000   16.2261840000   16.2261840000
   246      2    8.2130920000   16.2261840000   20.2327300000
   247      2    8.2130920000   16.2261840000   24.2392760000
   248      2    8.2130920000   16.2261840000   28.2458220000
   249      2    8.2130920000   16.2261840000   32.2523680000
   250      2    8.2130920000   16.2261840000   36.2589140000
   251      2    8.2130920000   20.2327300000    0.2000000000
   252      2    8.2130920000   20.2327300000    4.2065460000
   253      2    8.2130920000   20.2327300000    8.2130920000
   254      2    8.2130920000   20.2327300000   12.2196380000
   255      2    8.2130920000   20.2327300000   16.2261840000
   256      2    8.2130920000   20.2327300000   20.2327300000
   257      2    8.2130920000   20.2327300000   24.2392760000
   258      2    8.2130920000   20.2327300000   28.2458220000
   259      2    8.2130920000   20.2327300000   32.2523680000
   260      2    8.2130920000   20.2327300000   36.2589140000
   261      2    8.2130920000   24.2392760000    0.2000000000
   262      2    8.2130920000   24.2392760000    4.2065460000
   263      2    8.2130920000   24.2392760000    8.2130920000
   264      2    8.2130920000   24.2392760000   12.2196380000
   265      2    8.2130920000   24.2392760000   16.2261840000
   266      2    8.2130920000   24.2392760000   20.2327300000
   267      2    8.2130920000   24.2392760000   24.2392760000
   268      2    8.2130920000   24.2392760000   28.2458220000
   269      2    8.2130920000   24.2392760000   32.2523680000
   270      2    8.2130920000   24.2392760000   36.2589140000
   271      2    8.2130920000   28.2458220000    0.2000000000
   272      2    8.2130920000   28.2458220000    4.2065460000
   273      2    8.2130920000   28.2458220000    8.2130920000
   274      2    8.2130920000   28.2458220000   12.2196380000
   275      2    8.2130920000   28.2458220000   16.2261840000
   276      2    8.2130920000   28.2458220000   20.2327300000
   277      2    8.2130920000   28.2458220000   24.2392760000
   278      2    8.2130920000   28.2458220000   28.2458220000
   279      2    8.2130920000   28.2458220000   32.2523680000
   280      2    8.2130920000   28.2458220000   36.2589140000
   281      2    8.2130920000   32.2523680000    0.2000000000
   282      2    8.2130920000   32.2523680000    4.2065460000
   283      2    8.2130920000   32.2523680000    8.2130920000
   284      2    8.2130920000   32.2523680000   12.2196380000
   285      2    8.2130920000   32.2523680000   16.2261840000
   286      2    8.2130920000   32.2523680000   20.2327300000
   287      2    8.2130920000   32.2523680000   24.2392760000
   288      2    8.2130920000   32.2523680000   28.2458220000
   289      2    8.2130920000   32.2523680000   32.2523680000
   290      2    8.2130920000   32.2523680000   36.2589140000
   291      2    8.2130920000   36.2589140000    0.2000000000
   292      2    8.2130920000   36.2589140000    4.2065460000
   293      2    8.2130920000   36.2589140000    8.2130920000
   294      2    8.2130920000   36.2589140000   12.2196380000
   295      2    8.2130920000   36.2589140000   16.2261840000
   296      2    8.2130920000   36.2589140000   20.2327300000
   297      2    8.2130920000   36.2589140000   24.2392760000
   298      2    8.2130920000   36.2589140000   28.2458220000
   299      2    8.2130920000   36.2589140000   32.2523680000
   300      2    8.2130920000   36.2589140000   36.2589140000
   301      2   12.2196380000    0.2000000000    0.2000000000
   302      2   12.2196380000    0.2000000000    4.2065460000
   303      2   12.2196380000    0.2000000000    8.2130920000
   304      2   12.2196380000    0.2000000000   12.2196380000
   305      2   12.2196380000    0.2000000000   16.2261840000
   306      2   12.2196380000    0.2000000000   20.2327300000
   307      2   12.2196380000    0.2000000000   24.2392760000
   308      2   12.2196380000    0.2000000000   28.2458220000
   309      2   12.2196380000    0.2000000000   32.2523680000
   310      2   12.2196380000    0.2000000000   36.2589140000
   311      2   12.2196380000    4.2065460000    0.2000000000
   312      2   12.2196380000    4.2065460000    4.2065460000
   313      2   12.2196380000    4.2065460000    8.2130920000
   314      2   12.2196380000    4.2065460000   12.2196380000
   315      2   12.2196380000    4.2065460000   16.2261840000
   316      2   12.2196380000    4.2065460000   20.2327300000
   317      2   12.2196380000    4.2065460000   24.2392760000
   318      2   12.2196380000    4.2065460000   28.2458220000
   319      2   12.2196380000    4.2065460000   32.2523680000
   320      2   12.2196380000    4.2065460000   36.2589140000
   321      2   12.2196380000    8.2130920000    0.2000000000
   322      2   12.2196380000    8.2130920000    4.2065460000
   323      2   12.2196380000    8.2130920000    8.2130920000
   324      2   12.2196380000    8.2130920000   12.2196380000
   325      2   12.2196380000    8.2130920000   16.2261840000
   326      2   12.2196380000    8.2130920000   20.2327300000
   327      2   12.2196380000    8.2130920000   24.2392760000
   328      2   12.2196380000    8.2130920000   28.2458220000
   329      2   12.2196380000    8.2130920000   32.2523680000
   330      2   12.2196380000    8.2130920000   36.2589140000
   331      2   12.2196380000   12.2196380000    0.2000000000
   332      2   12.2196380000   12.2196380000    4.2065460000
   333      2   12.2196380000   12.2196380000    8.2130920000
   334      2   12.2196380000   12.2196380000   12.2196380000
   335      2   12.2196380000   12.2196380000   16.2261840000
   336      2   12.2196380000   12.2196380000   20.2327300000
   337      2   12.2196380000   12.2196380000   24.2392760000
   338      2   12.2196380000   12.2196380000   28.2458220000
   339      2   12.2196380000   12.2196380000   32.2523680000
   340      2   12.2196380000   12.2196380000   36.2589140000
   341      2   12.2196380000   16.2261840000    0.2000000000
   342      2   12.2196380000   16.2261840000    4.2065460000
   343      2   12.2196380000   16.2261840000    8.2130920000
   344      2   12.2196380000   16.2261840000   12.2196380000
   345      2   12.2196380000   16.2261840000   16.2261840000
   346      2   12.2196380000   16.2261840000   20.2327300000
   347      2   12.2196380000   16.2261840000   24.2392760000
   348      2   12.2196380000   16.2261840000   28.2458220000
   349      2   12.2196380000   16.2261840000   32.2523680000
   350      2   12.2196380000   16.2261840000   36.2589140000
   351      2   12.2196380000   20.2327300000    0.2000000000
   352      2   12.2196380000   20.2327300000    4.2065460000
   353      2   12.2196380000   20.2327300000    8.2130920000
   354      2   12.2196380000   20.2327300000   12.2196380000
   355      2   12.2196380000   20.2327300000   16.2261840000
   356      2   12.2196380000   20.2327300000   20.2327300000
   357      2   12.2196380000   20.2327300000   24.2392760000
   358      2   12.2196380000   20.2327300000   28.2458220000
   359      2   12.2196380000   20.2327300000   32.2523680000
   360      2   12.2196380000   20.2327300000   36.2589140000
   361      2   12.2196380000   24.2392760000    0.2000000000
   362      2   12.2196380000   24.2392760000    4.2065460000
   363      2   12.2196380000   24.2392760000    8.2130920000
   364      2   12.2196380000   24.2392760000   12.2196380000
   365      2   12.2196380000   24.2392760000   16.2261840000
   366      2   12.2196380000   24.2392760000   20.2327300000
   367      2   12.2196380000   24.2392760000   24.2392760000
   368      2   12.2196380000   24.2392760000   28.2458220000
   369      2   12.2196380000   24.2392760000   32.2523680000
   370      2   12.2196380000   24.2392760000   36.2589140000
   371      2   12.2196380000   28.2458220000    0.2000000000
   372      2   12.2196380000   28.2458220000    4.2065460000
   373      2   12.2196380000   28.2458220000    8.2130920000
   374      2   12.2196380000   28.2458220000   12.2196380000
   375      2   12.2196380000   28.2458220000   16.2261840000
   376      2   12.2196380000   28.2458220000   20.2327300000
   377      2   12.2196380000   28.2458220000   24.2392760000
   378      2   12.2196380000   28.2458220000   28.2458220000
   379      2   12.2196380000   28.2458220000   32.2523680000
   380      2   12.2196380000   28.2458220000   36.2589140000
   381      2   12.2196380000   32.2523680000    0.2000000000
   382      2   12.2196380000   32.2523680000    4.2065460000
   383      2   12.2196380000   32.2523680000    8.2130920000
   384      2   12.2196380000   32.2523680000   12.2196380000
   385      2   12.2196380000   32.2523680000   16.2261840000
   386      2   12.2196380000   32.2523680000   20.2327300000
   387      2   12.2196380000   32.2523680000   24.2392760000
   388      2   12.2196380000   32.2523680000   28.2458220000
   389      2   12.2196380000   32.2523680000   32.2523680000
   390      2   12.2196380000   32.2523680000   36.2589140000
   391      2   12.2196380000   36.2589140000    0.2000000000
   392      2   12.2196380000   36.2589140000    4.2065460000
   393      2   12.2196380000   36.2589140000    8.2130920000
   394      2   12.2196380000   36.2589140000   12.2196380000
   395      2   12.2196380000   36.2589140000   16.2261840000
   396      2   12.2196380000   36.2589140000   20.2327300000
   397      2   12.2196380000   36.2589140000   24.2392760000
   398      2   12.2196380000   36.2589140000   28.2458220000
   399      2   12.2196380000   36.2589140000   32.2523680000
   400      2   12.2196380000   36.2589140000   36.2589140000
   401      2   16.2261840000    0.2000000000    0.2000000000
   402      2   16.2261840000    0.2000000000    4.2065460000
   403      2   16.2261840000    0.2000000000    8.2130920000
   404      2   16.2261840000    0.2000000000   12.2196380000
   405      2   16.2261840000    0.2000000000   16.2261840000
   406      2   16.2261840000    0.2000000000   20.2327300000
   407      2   16.2261840000    0.2000000000   24.2392760000
   408      2   16.2261840000    0.2000000000   28.2458220000
   409      2   16.2261840000    0.2000000000   32.2523680000
   410      2   16.2261840000    0.2000000000   36.2589140000
   411      2   16.2261840000    4.2065460000    0.2000000000
   412      2   16.2261840000    4.2065460000    4.2065460000
   413      2   16.2261840000    4.2065460000    8.2130920000
   414      2   16.2261840000    4.2065460000   12.2196380000
   415      2   16.2261840000    4.2065460000   16.2261840000
   416      2   16.2261840000    4.2065460000   20.2327300000
   417      2   16.2261840000    4.2065460000   24.2392760000
   418      2   16.2261840000    4.2065460000   28.2458220000
   419      2   16.2261840000    4.2065460000   32.2523680000
   420      2   16.2261840000    4.2065460000   36.2589140000
   421      2   16.2261840000    8.2130920000    0.2000000000
   422      2   16.2261840000    8.2130920000    4.2065460000
   423      2   16.2261840000    8.2130920000    8.2130920000
   424      2   16.2261840000    8.2130920000   12.2196380000
   425      2   16.2261840000    8.2130920000   16.2261840000
   426      2   16.2261840000    8.2130920000   20.2327300000
   427      2   16.2261840000    8.2130920000   24.2392760000
   428      2   16.2261840000    8.2130920000   28.2458220000
   429      2   16.2261840000    8.2130920000   32.2523680000
   430      2   16.2261840000    8.2130920000   36.2589140000
   431      2   16.2261840000   12.2196380000    0.2000000000
   432      2   16.2261840000   12.2196380000    4.2065460000
   433      2   16.2261840000   12.2196380000    8.2130920000
   434      2   16.2261840000   12.2196380000   12.2196380000
   435      2   16.2261840000   12.2196380000   16.2261840000
   436      2   16.2261840000   12.2196380000   20.2327300000
   437      2   16.2261840000   12.2196380000   24.2392760000
   438      2   16.2261840000   12.2196380000   28.2458220000
   439      2   16.2261840000   12.2196380000   32.2523680000
   440      2   16.2261840000   12.2196380000   36.2589140000
   441      2   16.2261840000   16.2261840000    0.2000000000
   442      2   16.2261840000   16.2261840000    4.2065460000
   443      2   16.2261840000   16.2261840000    8.2130920000
   444      2   16.2261840000   16.2261840000   12.2196380000
   445      2   16.2261840000   16.2261840000   16.2261840000
   446      2   16.2261840000   16.2261840000   20.2327300000
   447      2   16.2261840000   16.2261840000   24.2392760000
   448      2   16.2261840000   16.2261840000   28.2458220000
   449      2   16.2261840000   16.2261840000   32.2523680000
   450      2   16.2261840000   16.2261840000   36.2589140000
   451      2   16.2261840000   20.2327300000    0.2000000000
   452      2   16.2261840000   20.2327300000    4.2065460000
   453      2   16.2261840000   20.2327300000    8.2130920000
   454      2   16.2261840000   20.2327300000   12.2196380000
   455      2   16.2261840000   20.2327300000   16.2261840000
   456      2   16.2261840000   20.2327300000   20.2327300000
   457      2   16.2261840000   20.2327300000   24.2392760000
   458      2   16.2261840000   20.2327300000   28.2458220000
   459      2   16.2261840000   20.2327300000   32.2523680000
   460      2   16.2261840000   20.2327300000   36.2589140000
   461      2   16.2261840000   24.2392760000    0.2000000000
   462      2   16.2261840000   24.2392760000    4.2065460000
   463      2   16.2261840000   24.2392760000    8.2130920000
   464      2   16.2261840000   24.2392760000   12.2196380000
   465      2   16.2261840000   24.2392760000   16.2261840000
   466      2   16.2261840000   24.2392760000   20.2327300000
   467      2   16.2261840000   24.2392760000   24.2392760000
   468      2   16.2261840000   24.2392760000   28.2458220000
   469      2   16.2261840000   24.2392760000   32.2523680000
   470      2   16.2261840000   24.2392760000   36.2589140000
   471      2   16.2261840000   28.2458220000    0.2000000000
   472      2   16.2261840000   28.2458220000    4.2065460000
   473      2   16.2261840000   28.2458220000    8.2130920000
   474      2   16.2261840000   28.2458220000   12.2196380000
   475      2   16.2261840000   28.2458220000   16.2261840000
   476      2   16.2261840000   28.2458220000   20.2327300000
   477      2   16.2261840000   28.2458220000   24.2392760000
   478      2   16.2261840000   28.2458220000   28.2458220000
   479      2   16.2261840000   28.2458220000   32.2523680000
   480      2   16.2261840000   28.2458220000   36.2589140000