
40 atoms
15 atom types
   0.0000000000    7.9346774880 xlo xhi
   0.0000000000    7.9346774880 ylo yhi
   0.0000000000    8.1447063627 zlo zhi
   0.0000000000    0.0000000000    0.0000000000 xy xz yz

Atoms # atomic

     1      1    0.0000000000    0.0000000000    0.0000000000
     2      1    0.0000000000    0.0000000000    4.0723531814
     3      1    0.0000000000    3.9673387440    0.0000000000
     4      1    0.0000000000    3.9673387440    4.0723531814
     5      1    3.9673387440    0.0000000000    0.0000000000
     6      1    3.9673387440    0.0000000000    4.0723531814
     7      1    3.9673387440    3.9673387440    0.0000000000
     8      1    3.9673387440    3.9673387440    4.0723531814
     9      9    1.9836693720    1.9836693720    2.1047615340
    10      9    1.9836693720    1.9836693720    6.1771147154
    11      9    1.9836693720    5.9510081160    2.1047615340
    12      9    1.9836693720    5.9510081160    6.1771147154
    13      9    5.9510081160    1.9836693720    2.1047615340
    14      9    5.9510081160    1.9836693720    6.1771147154
    15      9    5.9510081160    5.9510081160    2.1047615340
    16      9    5.9510081160    5.9510081160    6.1771147154
    17     15    0.0000000000    1.9836693720    1.9596236811
    18     15    0.0000000000    1.9836693720    6.0319768625
    19     15    0.0000000000    5.9510081160    1.9596236811
    20     15    0.0000000000    5.9510081160    6.0319768625
    21     15    3.9673387440    1.9836693720    1.9596236811
    22     15    3.9673387440    1.9836693720    6.0319768625
    23     15    3.9673387440    5.9510081160    1.9596236811
    24     15    3.9673387440    5.9510081160    6.0319768625
    25     15    1.9836693720    0.0000000000    1.9596236811
    26     15    1.9836693720    0.0000000000    6.0319768625
    27     15    1.9836693720    3.9673387440    1.9596236811
    28     15    1.9836693720    3.9673387440    6.0319768625
    29     15    5.9510081160    0.0000000000    1.9596236811
    30     15    5.9510081160    0.0000000000    6.0319768625
    31     15    5.9510081160    3.9673387440    1.9596236811
    32     15    5.9510081160    3.9673387440    6.0319768625
    33     15    1.9836693720    1.9836693720    3.9433923442
    34     15    1.9836693720    1.9836693720    8.0157455256
    35     15    1.9836693720    5.9510081160    3.9433923442
    36     15    1.9836693720    5.9510081160    8.0157455256
    37     15    5.9510081160    1.9836693720    3.9433923442
    38     15    5.9510081160    1.9836693720    8.0157455256
    39     15    5.9510081160    5.9510081160    3.9433923442
    40     15    5.9510081160    5.9510081160    8.0157455256
