7.934676600961077853e+00 0.000000000000000000e+00 0.000000000000000000e+00 0.000000000000000000e+00 7.934676600961077853e+00 0.000000000000000000e+00 0.000000000000000000e+00 0.000000000000000000e+00 8.144705452199762163e+00
7.934818380643950952e+00 0.000000000000000000e+00 0.000000000000000000e+00 0.000000000000000000e+00 7.934818380643950952e+00 0.000000000000000000e+00 0.000000000000000000e+00 0.000000000000000000e+00 8.144850984755032997e+00
7.935610519130162466e+00 0.000000000000000000e+00 0.000000000000000000e+00 0.000000000000000000e+00 7.935610519130162466e+00 0.000000000000000000e+00 0.000000000000000000e+00 0.000000000000000000e+00 8.145664090943549596e+00
7.937309604017718456e+00 0.000000000000000000e+00 0.000000000000000000e+00 0.000000000000000000e+00 7.937309604017718456e+00 0.000000000000000000e+00 0.000000000000000000e+00 0.000000000000000000e+00 8.147408150170219798e+00
7.940679185646392746e+00 0.000000000000000000e+00 0.000000000000000000e+00 0.000000000000000000e+00 7.940679185646392746e+00 0.000000000000000000e+00 0.000000000000000000e+00 0.000000000000000000e+00 8.150866923759476634e+00
7.947630603488937240e+00 0.000000000000000000e+00 0.000000000000000000e+00 0.000000000000000000e+00 7.947630603488937240e+00 0.000000000000000000e+00 0.000000000000000000e+00 0.000000000000000000e+00 8.158002343845851101e+00
7.958665809181971085e+00 0.000000000000000000e+00 0.000000000000000000e+00 0.000000000000000000e+00 7.958665809181971085e+00 0.000000000000000000e+00 0.000000000000000000e+00 0.000000000000000000e+00 8.169329648599473970e+00
7.971154975390568609e+00 0.000000000000000000e+00 0.000000000000000000e+00 0.000000000000000000e+00 7.971154975390568609e+00 0.000000000000000000e+00 0.000000000000000000e+00 0.000000000000000000e+00 8.182149399829125258e+00
7.982334357331679620e+00 0.000000000000000000e+00 0.000000000000000000e+00 0.000000000000000000e+00 7.982334357331679620e+00 0.000000000000000000e+00 0.000000000000000000e+00 0.000000000000000000e+00 8.193624697137856572e+00
7.991658838997155456e+00 0.000000000000000000e+00 0.000000000000000000e+00 0.000000000000000000e+00 7.991658838997155456e+00 0.000000000000000000e+00 0.000000000000000000e+00 0.000000000000000000e+00 8.203195995437580379e+00
7.999592189135403153e+00 0.000000000000000000e+00 0.000000000000000000e+00 0.000000000000000000e+00 7.999592189135403153e+00 0.000000000000000000e+00 0.000000000000000000e+00 0.000000000000000000e+00 8.211339339316042540e+00
8.005888509030890887e+00 0.000000000000000000e+00 0.000000000000000000e+00 0.000000000000000000e+00 8.005888509030890887e+00 0.000000000000000000e+00 0.000000000000000000e+00 0.000000000000000000e+00 8.217802321182173131e+00
8.010123736208646150e+00 0.000000000000000000e+00 0.000000000000000000e+00 0.000000000000000000e+00 8.010123736208646150e+00 0.000000000000000000e+00 0.000000000000000000e+00 0.000000000000000000e+00 8.222149653735618458e+00
8.012577553639735228e+00 0.000000000000000000e+00 0.000000000000000000e+00 0.000000000000000000e+00 8.012577553639735228e+00 0.000000000000000000e+00 0.000000000000000000e+00 0.000000000000000000e+00 8.224668423082823310e+00
8.013435176971997365e+00 0.000000000000000000e+00 0.000000000000000000e+00 0.000000000000000000e+00 8.013435176971997365e+00 0.000000000000000000e+00 0.000000000000000000e+00 0.000000000000000000e+00 8.225548747484410228e+00
8.012797698812512692e+00 0.000000000000000000e+00 0.000000000000000000e+00 0.000000000000000000e+00 8.012797698812512692e+00 0.000000000000000000e+00 0.000000000000000000e+00 0.000000000000000000e+00 8.224894395442056805e+00
8.011065969012872046e+00 0.000000000000000000e+00 0.000000000000000000e+00 0.000000000000000000e+00 8.011065969012872046e+00 0.000000000000000000e+00 0.000000000000000000e+00 0.000000000000000000e+00 8.223116827200275480e+00
8.009256497699732691e+00 0.000000000000000000e+00 0.000000000000000000e+00 0.000000000000000000e+00 8.009256497699732691e+00 0.000000000000000000e+00 0.000000000000000000e+00 0.000000000000000000e+00 8.221259459645843037e+00
8.008995162001060208e+00 0.000000000000000000e+00 0.000000000000000000e+00 0.000000000000000000e+00 8.008995162001060208e+00 0.000000000000000000e+00 0.000000000000000000e+00 0.000000000000000000e+00 8.220991206457988199e+00
8.010960292514177183e+00 0.000000000000000000e+00 0.000000000000000000e+00 0.000000000000000000e+00 8.010960292514177183e+00 0.000000000000000000e+00 0.000000000000000000e+00 0.000000000000000000e+00 8.223008353471684018e+00
8.015891341044577345e+00 0.000000000000000000e+00 0.000000000000000000e+00 0.000000000000000000e+00 8.015891341044577345e+00 0.000000000000000000e+00 0.000000000000000000e+00 0.000000000000000000e+00 8.228069925589750255e+00
8.024229665048672189e+00 0.000000000000000000e+00 0.000000000000000000e+00 0.000000000000000000e+00 8.024229665048672189e+00 0.000000000000000000e+00 0.000000000000000000e+00 0.000000000000000000e+00 8.236628962888353556e+00
8.034729533654267897e+00 0.000000000000000000e+00 0.000000000000000000e+00 0.000000000000000000e+00 8.034729533654267897e+00 0.000000000000000000e+00 0.000000000000000000e+00 0.000000000000000000e+00 8.247406760318106933e+00
8.047705855956648335e+00 0.000000000000000000e+00 0.000000000000000000e+00 0.000000000000000000e+00 8.047705855956648335e+00 0.000000000000000000e+00 0.000000000000000000e+00 0.000000000000000000e+00 8.260726562538314610e+00
8.064573269774735209e+00 0.000000000000000000e+00 0.000000000000000000e+00 0.000000000000000000e+00 8.064573269774735209e+00 0.000000000000000000e+00 0.000000000000000000e+00 0.000000000000000000e+00 8.278040452466349564e+00
8.084420716817852792e+00 0.000000000000000000e+00 0.000000000000000000e+00 0.000000000000000000e+00 8.084420716817852792e+00 0.000000000000000000e+00 0.000000000000000000e+00 0.000000000000000000e+00 8.298413256334354671e+00
8.104507251764710318e+00 0.000000000000000000e+00 0.000000000000000000e+00 0.000000000000000000e+00 8.104507251764710318e+00 0.000000000000000000e+00 0.000000000000000000e+00 0.000000000000000000e+00 8.319031476701669092e+00
8.123505891945814739e+00 0.000000000000000000e+00 0.000000000000000000e+00 0.000000000000000000e+00 8.123505891945814739e+00 0.000000000000000000e+00 0.000000000000000000e+00 0.000000000000000000e+00 8.338533006007994075e+00
8.139991878705510331e+00 0.000000000000000000e+00 0.000000000000000000e+00 0.000000000000000000e+00 8.139991878705510331e+00 0.000000000000000000e+00 0.000000000000000000e+00 0.000000000000000000e+00 8.355455372601756636e+00
8.152746330182047529e+00 0.000000000000000000e+00 0.000000000000000000e+00 0.000000000000000000e+00 8.152746330182047529e+00 0.000000000000000000e+00 0.000000000000000000e+00 0.000000000000000000e+00 8.368547431131926118e+00
8.161286903573934381e+00 0.000000000000000000e+00 0.000000000000000000e+00 0.000000000000000000e+00 8.161286903573934381e+00 0.000000000000000000e+00 0.000000000000000000e+00 0.000000000000000000e+00 8.377314071307504051e+00
8.164714313260732936e+00 0.000000000000000000e+00 0.000000000000000000e+00 0.000000000000000000e+00 8.164714313260732936e+00 0.000000000000000000e+00 0.000000000000000000e+00 0.000000000000000000e+00 8.380832203648074241e+00
8.163383521010173283e+00 0.000000000000000000e+00 0.000000000000000000e+00 0.000000000000000000e+00 8.163383521010173283e+00 0.000000000000000000e+00 0.000000000000000000e+00 0.000000000000000000e+00 8.379466185668285050e+00
8.157763979262947274e+00 0.000000000000000000e+00 0.000000000000000000e+00 0.000000000000000000e+00 8.157763979262947274e+00 0.000000000000000000e+00 0.000000000000000000e+00 0.000000000000000000e+00 8.373697896095297466e+00
8.148186838147857713e+00 0.000000000000000000e+00 0.000000000000000000e+00 0.000000000000000000e+00 8.148186838147857713e+00 0.000000000000000000e+00 0.000000000000000000e+00 0.000000000000000000e+00 8.363867250514454454e+00
8.134277335745141002e+00 0.000000000000000000e+00 0.000000000000000000e+00 0.000000000000000000e+00 8.134277335745141002e+00 0.000000000000000000e+00 0.000000000000000000e+00 0.000000000000000000e+00 8.349589567156099790e+00
8.115028381678918379e+00 0.000000000000000000e+00 0.000000000000000000e+00 0.000000000000000000e+00 8.115028381678918379e+00 0.000000000000000000e+00 0.000000000000000000e+00 0.000000000000000000e+00 8.329831098221795571e+00
8.089696167131771531e+00 0.000000000000000000e+00 0.000000000000000000e+00 0.000000000000000000e+00 8.089696167131771531e+00 0.000000000000000000e+00 0.000000000000000000e+00 0.000000000000000000e+00 8.303828346463465238e+00
8.058961829591874348e+00 0.000000000000000000e+00 0.000000000000000000e+00 0.000000000000000000e+00 8.058961829591874348e+00 0.000000000000000000e+00 0.000000000000000000e+00 0.000000000000000000e+00 8.272280478904491474e+00
8.025432967120105232e+00 0.000000000000000000e+00 0.000000000000000000e+00 0.000000000000000000e+00 8.025432967120105232e+00 0.000000000000000000e+00 0.000000000000000000e+00 0.000000000000000000e+00 8.237864116056440977e+00
7.991983974992574957e+00 0.000000000000000000e+00 0.000000000000000000e+00 0.000000000000000000e+00 7.991983974992574957e+00 0.000000000000000000e+00 0.000000000000000000e+00 0.000000000000000000e+00 8.203529737699462032e+00
7.960586547735621465e+00 0.000000000000000000e+00 0.000000000000000000e+00 0.000000000000000000e+00 7.960586547735621465e+00 0.000000000000000000e+00 0.000000000000000000e+00 0.000000000000000000e+00 8.171301228609465284e+00
7.932597389909642693e+00 0.000000000000000000e+00 0.000000000000000000e+00 0.000000000000000000e+00 7.932597389909642693e+00 0.000000000000000000e+00 0.000000000000000000e+00 0.000000000000000000e+00 8.142571204966131404e+00
7.909345130282650516e+00 0.000000000000000000e+00 0.000000000000000000e+00 0.000000000000000000e+00 7.909345130282650516e+00 0.000000000000000000e+00 0.000000000000000000e+00 0.000000000000000000e+00 8.118703464000036618e+00
7.891831142960435308e+00 0.000000000000000000e+00 0.000000000000000000e+00 0.000000000000000000e+00 7.891831142960435308e+00 0.000000000000000000e+00 0.000000000000000000e+00 0.000000000000000000e+00 8.100725885932389403e+00
7.880451520185971503e+00 0.000000000000000000e+00 0.000000000000000000e+00 0.000000000000000000e+00 7.880451520185971503e+00 0.000000000000000000e+00 0.000000000000000000e+00 0.000000000000000000e+00 8.089045047466813187e+00
7.875538040295441355e+00 0.000000000000000000e+00 0.000000000000000000e+00 0.000000000000000000e+00 7.875538040295441355e+00 0.000000000000000000e+00 0.000000000000000000e+00 0.000000000000000000e+00 8.084001509025940280e+00
7.877186931223928212e+00 0.000000000000000000e+00 0.000000000000000000e+00 0.000000000000000000e+00 7.877186931223928212e+00 0.000000000000000000e+00 0.000000000000000000e+00 0.000000000000000000e+00 8.085694045674189923e+00
7.884969492558161264e+00 0.000000000000000000e+00 0.000000000000000000e+00 0.000000000000000000e+00 7.884969492558161264e+00 0.000000000000000000e+00 0.000000000000000000e+00 0.000000000000000000e+00 8.093682609407609974e+00
7.898103533704665224e+00 0.000000000000000000e+00 0.000000000000000000e+00 0.000000000000000000e+00 7.898103533704665224e+00 0.000000000000000000e+00 0.000000000000000000e+00 0.000000000000000000e+00 8.107164305248909741e+00
7.915494731908691683e+00 0.000000000000000000e+00 0.000000000000000000e+00 0.000000000000000000e+00 7.915494731908691683e+00 0.000000000000000000e+00 0.000000000000000000e+00 0.000000000000000000e+00 8.125015844001076459e+00
7.935586893775157691e+00 0.000000000000000000e+00 0.000000000000000000e+00 0.000000000000000000e+00 7.935586893775157691e+00 0.000000000000000000e+00 0.000000000000000000e+00 0.000000000000000000e+00 8.145639840230144202e+00
7.956802613224088105e+00 0.000000000000000000e+00 0.000000000000000000e+00 0.000000000000000000e+00 7.956802613224088105e+00 0.000000000000000000e+00 0.000000000000000000e+00 0.000000000000000000e+00 8.167417134322480621e+00
7.977759728137623796e+00 0.000000000000000000e+00 0.000000000000000000e+00 0.000000000000000000e+00 7.977759728137623796e+00 0.000000000000000000e+00 0.000000000000000000e+00 0.000000000000000000e+00 8.188928978684826276e+00
7.996553226990584129e+00 0.000000000000000000e+00 0.000000000000000000e+00 0.000000000000000000e+00 7.996553226990584129e+00 0.000000000000000000e+00 0.000000000000000000e+00 0.000000000000000000e+00 8.208219936624264079e+00
8.011252549846856752e+00 0.000000000000000000e+00 0.000000000000000000e+00 0.000000000000000000e+00 8.011252549846856752e+00 0.000000000000000000e+00 0.000000000000000000e+00 0.000000000000000000e+00 8.223308346780831002e+00
8.021093412455888583e+00 0.000000000000000000e+00 0.000000000000000000e+00 0.000000000000000000e+00 8.021093412455888583e+00 0.000000000000000000e+00 0.000000000000000000e+00 0.000000000000000000e+00 8.233409694494431719e+00
8.026985793103568412e+00 0.000000000000000000e+00 0.000000000000000000e+00 0.000000000000000000e+00 8.026985793103568412e+00 0.000000000000000000e+00 0.000000000000000000e+00 0.000000000000000000e+00 8.239458044944305115e+00
8.030669399813620046e+00 0.000000000000000000e+00 0.000000000000000000e+00 0.000000000000000000e+00 8.030669399813620046e+00 0.000000000000000000e+00 0.000000000000000000e+00 0.000000000000000000e+00 8.243239155777093430e+00
8.032852939649506752e+00 0.000000000000000000e+00 0.000000000000000000e+00 0.000000000000000000e+00 8.032852939649506752e+00 0.000000000000000000e+00 0.000000000000000000e+00 0.000000000000000000e+00 8.245480493352278728e+00
8.032789430477086157e+00 0.000000000000000000e+00 0.000000000000000000e+00 0.000000000000000000e+00 8.032789430477086157e+00 0.000000000000000000e+00 0.000000000000000000e+00 0.000000000000000000e+00 8.245415303108533323e+00
8.029274706291896990e+00 0.000000000000000000e+00 0.000000000000000000e+00 0.000000000000000000e+00 8.029274706291896990e+00 0.000000000000000000e+00 0.000000000000000000e+00 0.000000000000000000e+00 8.241807545076875741e+00
8.021759892999424935e+00 0.000000000000000000e+00 0.000000000000000000e+00 0.000000000000000000e+00 8.021759892999424935e+00 0.000000000000000000e+00 0.000000000000000000e+00 0.000000000000000000e+00 8.234093816607419569e+00
8.011334540275893090e+00 0.000000000000000000e+00 0.000000000000000000e+00 0.000000000000000000e+00 8.011334540275893090e+00 0.000000000000000000e+00 0.000000000000000000e+00 0.000000000000000000e+00 8.223392507475375979e+00
8.000867708099132614e+00 0.000000000000000000e+00 0.000000000000000000e+00 0.000000000000000000e+00 8.000867708099132614e+00 0.000000000000000000e+00 0.000000000000000000e+00 0.000000000000000000e+00 8.212648620939422273e+00
7.992457750164382979e+00 0.000000000000000000e+00 0.000000000000000000e+00 0.000000000000000000e+00 7.992457750164382979e+00 0.000000000000000000e+00 0.000000000000000000e+00 0.000000000000000000e+00 8.204016053578079948e+00
7.985705058028911729e+00 0.000000000000000000e+00 0.000000000000000000e+00 0.000000000000000000e+00 7.985705058028911729e+00 0.000000000000000000e+00 0.000000000000000000e+00 0.000000000000000000e+00 8.197084619417502438e+00
7.979209404267851191e+00 0.000000000000000000e+00 0.000000000000000000e+00 0.000000000000000000e+00 7.979209404267851191e+00 0.000000000000000000e+00 0.000000000000000000e+00 0.000000000000000000e+00 8.190417027369170100e+00
7.972639786517548899e+00 0.000000000000000000e+00 0.000000000000000000e+00 0.000000000000000000e+00 7.972639786517548899e+00 0.000000000000000000e+00 0.000000000000000000e+00 0.000000000000000000e+00 8.183673513525867804e+00
7.967767421481349643e+00 0.000000000000000000e+00 0.000000000000000000e+00 0.000000000000000000e+00 7.967767421481349643e+00 0.000000000000000000e+00 0.000000000000000000e+00 0.000000000000000000e+00 8.178672178238059587e+00
7.966935035689812317e+00 0.000000000000000000e+00 0.000000000000000000e+00 0.000000000000000000e+00 7.966935035689812317e+00 0.000000000000000000e+00 0.000000000000000000e+00 0.000000000000000000e+00 8.177817759408350540e+00
7.969690638481733203e+00 0.000000000000000000e+00 0.000000000000000000e+00 0.000000000000000000e+00 7.969690638481733203e+00 0.000000000000000000e+00 0.000000000000000000e+00 0.000000000000000000e+00 8.180646302299406258e+00
7.974414893258500392e+00 0.000000000000000000e+00 0.000000000000000000e+00 0.000000000000000000e+00 7.974414893258500392e+00 0.000000000000000000e+00 0.000000000000000000e+00 0.000000000000000000e+00 8.185495606886348696e+00
7.981316410426289920e+00 0.000000000000000000e+00 0.000000000000000000e+00 0.000000000000000000e+00 7.981316410426289920e+00 0.000000000000000000e+00 0.000000000000000000e+00 0.000000000000000000e+00 8.192579805439569540e+00
7.992950500450963780e+00 0.000000000000000000e+00 0.000000000000000000e+00 0.000000000000000000e+00 7.992950500450963780e+00 0.000000000000000000e+00 0.000000000000000000e+00 0.000000000000000000e+00 8.204521846838581212e+00
8.010993150135037766e+00 0.000000000000000000e+00 0.000000000000000000e+00 0.000000000000000000e+00 8.010993150135037766e+00 0.000000000000000000e+00 0.000000000000000000e+00 0.000000000000000000e+00 8.223042080824537692e+00
8.031530061383392649e+00 0.000000000000000000e+00 0.000000000000000000e+00 0.000000000000000000e+00 8.031530061383392649e+00 0.000000000000000000e+00 0.000000000000000000e+00 0.000000000000000000e+00 8.244122598837728688e+00
8.051060135806404006e+00 0.000000000000000000e+00 0.000000000000000000e+00 0.000000000000000000e+00 8.051060135806404006e+00 0.000000000000000000e+00 0.000000000000000000e+00 0.000000000000000000e+00 8.264169629312982934e+00
8.069798137502823820e+00 0.000000000000000000e+00 0.000000000000000000e+00 0.000000000000000000e+00 8.069798137502823820e+00 0.000000000000000000e+00 0.000000000000000000e+00 0.000000000000000000e+00 8.283403621101335546e+00
8.089902395405660585e+00 0.000000000000000000e+00 0.000000000000000000e+00 0.000000000000000000e+00 8.089902395405660585e+00 0.000000000000000000e+00 0.000000000000000000e+00 0.000000000000000000e+00 8.304040033545931010e+00
8.110256972309587198e+00 0.000000000000000000e+00 0.000000000000000000e+00 0.000000000000000000e+00 8.110256972309587198e+00 0.000000000000000000e+00 0.000000000000000000e+00 0.000000000000000000e+00 8.324933390871473549e+00
8.127084211043934303e+00 0.000000000000000000e+00 0.000000000000000000e+00 0.000000000000000000e+00 8.127084211043934303e+00 0.000000000000000000e+00 0.000000000000000000e+00 0.000000000000000000e+00 8.342206042292891865e+00
8.137782448841655025e+00 0.000000000000000000e+00 0.000000000000000000e+00 0.000000000000000000e+00 8.137782448841655025e+00 0.000000000000000000e+00 0.000000000000000000e+00 0.000000000000000000e+00 8.353187459695545769e+00
8.141658504334911228e+00 0.000000000000000000e+00 0.000000000000000000e+00 0.000000000000000000e+00 8.141658504334911228e+00 0.000000000000000000e+00 0.000000000000000000e+00 0.000000000000000000e+00 8.357166113383216910e+00
8.139125265428997835e+00 0.000000000000000000e+00 0.000000000000000000e+00 0.000000000000000000e+00 8.139125265428997835e+00 0.000000000000000000e+00 0.000000000000000000e+00 0.000000000000000000e+00 8.354565820293288425e+00
8.131339212846860676e+00 0.000000000000000000e+00 0.000000000000000000e+00 0.000000000000000000e+00 8.131339212846860676e+00 0.000000000000000000e+00 0.000000000000000000e+00 0.000000000000000000e+00 8.346573672900495566e+00
8.120124415287612862e+00 0.000000000000000000e+00 0.000000000000000000e+00 0.000000000000000000e+00 8.120124415287612862e+00 0.000000000000000000e+00 0.000000000000000000e+00 0.000000000000000000e+00 8.335062022530021153e+00
8.107471449343895742e+00 0.000000000000000000e+00 0.000000000000000000e+00 0.000000000000000000e+00 8.107471449343895742e+00 0.000000000000000000e+00 0.000000000000000000e+00 0.000000000000000000e+00 8.322074135829206298e+00
8.095055102872123598e+00 0.000000000000000000e+00 0.000000000000000000e+00 0.000000000000000000e+00 8.095055102872123598e+00 0.000000000000000000e+00 0.000000000000000000e+00 0.000000000000000000e+00 8.309329131855287542e+00
8.082333308696602714e+00 0.000000000000000000e+00 0.000000000000000000e+00 0.000000000000000000e+00 8.082333308696602714e+00 0.000000000000000000e+00 0.000000000000000000e+00 0.000000000000000000e+00 8.296270595056158825e+00
8.066514950127837480e+00 0.000000000000000000e+00 0.000000000000000000e+00 0.000000000000000000e+00 8.066514950127837480e+00 0.000000000000000000e+00 0.000000000000000000e+00 0.000000000000000000e+00 8.280033528600602821e+00
8.048469173155764267e+00 0.000000000000000000e+00 0.000000000000000000e+00 0.000000000000000000e+00 8.048469173155764267e+00 0.000000000000000000e+00 0.000000000000000000e+00 0.000000000000000000e+00 8.261510084547124322e+00
8.030681654224078869e+00 0.000000000000000000e+00 0.000000000000000000e+00 0.000000000000000000e+00 8.030681654224078869e+00 0.000000000000000000e+00 0.000000000000000000e+00 0.000000000000000000e+00 8.243251734558684873e+00
8.013828679887875950e+00 0.000000000000000000e+00 0.000000000000000000e+00 0.000000000000000000e+00 8.013828679887875950e+00 0.000000000000000000e+00 0.000000000000000000e+00 0.000000000000000000e+00 8.225952666321331819e+00
7.996775095875440442e+00 0.000000000000000000e+00 0.000000000000000000e+00 0.000000000000000000e+00 7.996775095875440442e+00 0.000000000000000000e+00 0.000000000000000000e+00 0.000000000000000000e+00 8.208447678321313390e+00
7.979091338657472221e+00 0.000000000000000000e+00 0.000000000000000000e+00 0.000000000000000000e+00 7.979091338657472221e+00 0.000000000000000000e+00 0.000000000000000000e+00 0.000000000000000000e+00 8.190295836592781598e+00
7.961462837459433395e+00 0.000000000000000000e+00 0.000000000000000000e+00 0.000000000000000000e+00 7.961462837459433395e+00 0.000000000000000000e+00 0.000000000000000000e+00 0.000000000000000000e+00 8.172200713496758695e+00
7.944802483864445541e+00 0.000000000000000000e+00 0.000000000000000000e+00 0.000000000000000000e+00 7.944802483864445541e+00 0.000000000000000000e+00 0.000000000000000000e+00 0.000000000000000000e+00 8.155099364622271807e+00
7.930236304044763429e+00 0.000000000000000000e+00 0.000000000000000000e+00 0.000000000000000000e+00 7.930236304044763429e+00 0.000000000000000000e+00 0.000000000000000000e+00 0.000000000000000000e+00 8.140147621764008079e+00
7.919233905345883784e+00 0.000000000000000000e+00 0.000000000000000000e+00 0.000000000000000000e+00 7.919233905345883784e+00 0.000000000000000000e+00 0.000000000000000000e+00 0.000000000000000000e+00 8.128853992398537898e+00
7.913571646968548201e+00 0.000000000000000000e+00 0.000000000000000000e+00 0.000000000000000000e+00 7.913571646968548201e+00 0.000000000000000000e+00 0.000000000000000000e+00 0.000000000000000000e+00 8.123041855495948482e+00
7.913146668852849785e+00 0.000000000000000000e+00 0.000000000000000000e+00 0.000000000000000000e+00 7.913146668852849785e+00 0.000000000000000000e+00 0.000000000000000000e+00 0.000000000000000000e+00 8.122605628320004101e+00
7.916462402776486940e+00 0.000000000000000000e+00 0.000000000000000000e+00 0.000000000000000000e+00 7.916462402776486940e+00 0.000000000000000000e+00 0.000000000000000000e+00 0.000000000000000000e+00 8.126009128868428633e+00
7.922538803367895177e+00 0.000000000000000000e+00 0.000000000000000000e+00 0.000000000000000000e+00 7.922538803367895177e+00 0.000000000000000000e+00 0.000000000000000000e+00 0.000000000000000000e+00 8.132246370221990261e+00
7.931143778124068788e+00 0.000000000000000000e+00 0.000000000000000000e+00 0.000000000000000000e+00 7.931143778124068788e+00 0.000000000000000000e+00 0.000000000000000000e+00 0.000000000000000000e+00 8.141079116450042008e+00
7.941786295762533143e+00 0.000000000000000000e+00 0.000000000000000000e+00 0.000000000000000000e+00 7.941786295762533143e+00 0.000000000000000000e+00 0.000000000000000000e+00 0.000000000000000000e+00 8.152003338795928755e+00
7.954316749347468907e+00 0.000000000000000000e+00 0.000000000000000000e+00 0.000000000000000000e+00 7.954316749347468907e+00 0.000000000000000000e+00 0.000000000000000000e+00 0.000000000000000000e+00 8.164865470267628211e+00
7.968318693916059736e+00 0.000000000000000000e+00 0.000000000000000000e+00 0.000000000000000000e+00 7.968318693916059736e+00 0.000000000000000000e+00 0.000000000000000000e+00 0.000000000000000000e+00 8.179238042712773549e+00
7.983529550634787419e+00 0.000000000000000000e+00 0.000000000000000000e+00 0.000000000000000000e+00 7.983529550634787419e+00 0.000000000000000000e+00 0.000000000000000000e+00 0.000000000000000000e+00 8.194851526900857053e+00
7.999328681246234751e+00 0.000000000000000000e+00 0.000000000000000000e+00 0.000000000000000000e+00 7.999328681246234751e+00 0.000000000000000000e+00 0.000000000000000000e+00 0.000000000000000000e+00 8.211068856441023911e+00
8.013580751768024868e+00 0.000000000000000000e+00 0.000000000000000000e+00 0.000000000000000000e+00 8.013580751768024868e+00 0.000000000000000000e+00 0.000000000000000000e+00 0.000000000000000000e+00 8.225698175608256335e+00
8.024314637687545826e+00 0.000000000000000000e+00 0.000000000000000000e+00 0.000000000000000000e+00 8.024314637687545826e+00 0.000000000000000000e+00 0.000000000000000000e+00 0.000000000000000000e+00 8.236716184730278556e+00
8.030912642689440162e+00 0.000000000000000000e+00 0.000000000000000000e+00 0.000000000000000000e+00 8.030912642689440162e+00 0.000000000000000000e+00 0.000000000000000000e+00 0.000000000000000000e+00 8.243488837229850930e+00
8.032905950052363409e+00 0.000000000000000000e+00 0.000000000000000000e+00 0.000000000000000000e+00 8.032905950052363409e+00 0.000000000000000000e+00 0.000000000000000000e+00 0.000000000000000000e+00 8.245534906927057150e+00
8.030101631573865362e+00 0.000000000000000000e+00 0.000000000000000000e+00 0.000000000000000000e+00 8.030101631573865362e+00 0.000000000000000000e+00 0.000000000000000000e+00 0.000000000000000000e+00 8.242656358857848531e+00
8.024033779634248020e+00 0.000000000000000000e+00 0.000000000000000000e+00 0.000000000000000000e+00 8.024033779634248020e+00 0.000000000000000000e+00 0.000000000000000000e+00 0.000000000000000000e+00 8.236427892436775977e+00
8.016723317194472287e+00 0.000000000000000000e+00 0.000000000000000000e+00 0.000000000000000000e+00 8.016723317194472287e+00 0.000000000000000000e+00 0.000000000000000000e+00 0.000000000000000000e+00 8.228923923934878815e+00
8.010094810549151845e+00 0.000000000000000000e+00 0.000000000000000000e+00 0.000000000000000000e+00 8.010094810549151845e+00 0.000000000000000000e+00 0.000000000000000000e+00 0.000000000000000000e+00 8.222119962421530204e+00
8.005642245737455198e+00 0.000000000000000000e+00 0.000000000000000000e+00 0.000000000000000000e+00 8.005642245737455198e+00 0.000000000000000000e+00 0.000000000000000000e+00 0.000000000000000000e+00 8.217549539362261513e+00
8.003693363169810837e+00 0.000000000000000000e+00 0.000000000000000000e+00 0.000000000000000000e+00 8.003693363169810837e+00 0.000000000000000000e+00 0.000000000000000000e+00 0.000000000000000000e+00 8.215549070374562390e+00
8.003843753763117519e+00 0.000000000000000000e+00 0.000000000000000000e+00 0.000000000000000000e+00 8.003843753763117519e+00 0.000000000000000000e+00 0.000000000000000000e+00 0.000000000000000000e+00 8.215703441767953308e+00
8.006066099151627924e+00 0.000000000000000000e+00 0.000000000000000000e+00 0.000000000000000000e+00 8.006066099151627924e+00 0.000000000000000000e+00 0.000000000000000000e+00 0.000000000000000000e+00 8.217984612067850136e+00
8.010179124663814321e+00 0.000000000000000000e+00 0.000000000000000000e+00 0.000000000000000000e+00 8.010179124663814321e+00 0.000000000000000000e+00 0.000000000000000000e+00 0.000000000000000000e+00 8.222206508308346429e+00
8.015567722152423968e+00 0.000000000000000000e+00 0.000000000000000000e+00 0.000000000000000000e+00 8.015567722152423968e+00 0.000000000000000000e+00 0.000000000000000000e+00 0.000000000000000000e+00 8.227737740587906856e+00
8.022215663460873003e+00 0.000000000000000000e+00 0.000000000000000000e+00 0.000000000000000000e+00 8.022215663460873003e+00 0.000000000000000000e+00 0.000000000000000000e+00 0.000000000000000000e+00 8.234561651194422183e+00
8.030441437338842192e+00 0.000000000000000000e+00 0.000000000000000000e+00 0.000000000000000000e+00 8.030441437338842192e+00 0.000000000000000000e+00 0.000000000000000000e+00 0.000000000000000000e+00 8.243005159194048304e+00
8.039764261563856707e+00 0.000000000000000000e+00 0.000000000000000000e+00 0.000000000000000000e+00 8.039764261563856707e+00 0.000000000000000000e+00 0.000000000000000000e+00 0.000000000000000000e+00 8.252574756181564553e+00
8.049112418717049522e+00 0.000000000000000000e+00 0.000000000000000000e+00 0.000000000000000000e+00 8.049112418717049522e+00 0.000000000000000000e+00 0.000000000000000000e+00 0.000000000000000000e+00 8.262170356653399494e+00
8.057675823732511233e+00 0.000000000000000000e+00 0.000000000000000000e+00 0.000000000000000000e+00 8.057675823732511233e+00 0.000000000000000000e+00 0.000000000000000000e+00 0.000000000000000000e+00 8.270960432800073647e+00
8.065287888485174861e+00 0.000000000000000000e+00 0.000000000000000000e+00 0.000000000000000000e+00 8.065287888485174861e+00 0.000000000000000000e+00 0.000000000000000000e+00 0.000000000000000000e+00 8.278773986950902497e+00
8.070839138138509838e+00 0.000000000000000000e+00 0.000000000000000000e+00 0.000000000000000000e+00 8.070839138138509838e+00 0.000000000000000000e+00 0.000000000000000000e+00 0.000000000000000000e+00 8.284472176756406014e+00
8.072924414520031178e+00 0.000000000000000000e+00 0.000000000000000000e+00 0.000000000000000000e+00 8.072924414520031178e+00 0.000000000000000000e+00 0.000000000000000000e+00 0.000000000000000000e+00 8.286612649868200009e+00
8.072365990186490592e+00 0.000000000000000000e+00 0.000000000000000000e+00 0.000000000000000000e+00 8.072365990186490592e+00 0.000000000000000000e+00 0.000000000000000000e+00 0.000000000000000000e+00 8.286039444185743008e+00