2.832221721999999935e-03 7.933473517168000200e+00 3.680683006000000108e-03 5.118795110000000413e-04 7.931667728724000277e+00 4.078746533932999796e+00 7.923568410164000042e+00 3.969891174562000025e+00 8.143422035522000613e+00 8.586175411999999799e-03 3.956650585010000221e+00 4.074147827725999704e+00 3.968959341805999852e+00 7.327457148999999732e-03 8.140307718509999901e+00 3.966211242146000071e+00 7.933410102530999986e+00 4.074518104344999614e+00 3.959209828047999924e+00 3.966253466564999997e+00 9.204456670000000324e-04 3.970819668359999888e+00 3.971995450049000009e+00 4.065506854418999616e+00 1.999573297915999914e+00 1.987441751291000092e+00 2.105386088337999784e+00 1.984967828010999913e+00 1.977913354802000034e+00 6.185970532849999870e+00 1.982311028567999900e+00 5.964485371654999923e+00 2.103538362807999995e+00 1.988485805005999918e+00 5.940426341815999933e+00 6.170248750860999998e+00 5.948814810225999672e+00 1.976969944741999941e+00 2.096582618048000057e+00 5.953059949354999603e+00 1.990729061436999903e+00 6.175250972773000058e+00 5.947782841412999844e+00 5.945513660965000113e+00 2.091220874464999824e+00 5.950785743135999617e+00 5.946158892631999926e+00 6.188940541281000129e+00 7.934276256607000199e+00 2.014196542136000190e+00 1.960833544184999999e+00 7.923917935561999748e+00 1.982644648199000104e+00 6.043168991387999789e+00 1.960793454000000092e-03 5.953866542817999985e+00 1.947422386584999998e+00 1.157067976400000080e-02 5.970504449744000297e+00 6.012819003061999901e+00 3.971987488952000156e+00 1.971198268551000110e+00 1.957978250735999959e+00 3.979280298882000189e+00 1.998216634108000100e+00 6.025388350889000044e+00 3.961197742223999896e+00 5.956578937749999803e+00 1.944784310955000040e+00 3.984020256328999920e+00 5.959134722676999729e+00 6.034111012651999673e+00 1.986751226313000052e+00 1.355473677599999989e-02 1.958674489567999943e+00 1.992265325543000065e+00 7.929478698534000003e+00 6.050279630706000056e+00 1.984840233029000034e+00 3.976347515182999892e+00 1.958945501669000056e+00 1.959416201555999937e+00 3.995831359137000049e+00 6.019126399678000006e+00 5.959894911892999581e+00 7.914062492547000005e+00 1.974867998377999978e+00 5.938539856977000042e+00 7.930989499844000257e+00 6.010992206571000196e+00 5.936331168626000299e+00 3.959219529624999900e+00 1.980724336938999963e+00 5.918114445941999868e+00 3.967428344383999939e+00 6.055920359019999921e+00 2.003211708395999935e+00 1.970115425149000066e+00 3.963437218646999938e+00 1.970869768091999985e+00 1.973151716449000004e+00 8.002149838520999481e+00 1.988150055433999919e+00 5.929950090764999793e+00 3.933970746936000129e+00 1.987806059880000031e+00 5.946447624049000069e+00 8.020439841391999281e+00 5.938354431098000319e+00 1.991468856021000100e+00 3.934574374044999878e+00 5.948823085967999802e+00 1.974469258795999993e+00 8.008692088548999166e+00 5.960392182472999956e+00 5.960902641038999583e+00 3.945218249199000216e+00 5.951627484175999960e+00 5.961424284896000181e+00 8.034951874044999443e+00
1.688154815199999909e-02 7.927411426974999564e+00 2.187562109400000010e-02 2.410185396000000171e-03 7.916692274987999767e+00 4.110552616446000229e+00 7.869109915059000038e+00 3.982844081790000157e+00 8.137934651323000423e+00 5.056736391999999691e-02 3.904163090857000196e+00 4.082408797394999844e+00 3.977251378141999805e+00 4.279790124599999745e-02 8.118281323983000064e+00 3.961591035926999904e+00 7.926959507397000060e+00 4.085714241180999906e+00 3.918911141675999854e+00 3.961523855303000108e+00 5.685836300000000204e-03 3.988655793851000109e+00 3.995467366779000162e+00 4.031684767950999948e+00 2.073437000135999853e+00 2.008036081608000067e+00 2.115681116195000211e+00 1.993225911242000103e+00 1.945101430080000027e+00 6.217642402116999811e+00 1.975345189583000094e+00 6.026931005610999925e+00 2.092190161123999914e+00 2.010298372539999878e+00 5.891638398970999724e+00 6.141734540668999820e+00 5.943012670518999840e+00 1.944937557560999952e+00 2.060798498255000055e+00 5.960436904747999698e+00 2.020724048387000149e+00 6.163764168843999691e+00 5.932785965394000272e+00 5.920113891887000435e+00 2.032881620768999920e+00 5.948943677974000366e+00 5.928019208481000391e+00 6.240682133141000065e+00 9.522894309999999475e-04 2.152535502140000112e+00 1.965489729815999898e+00 7.882551245571000287e+00 1.981744160826000023e+00 6.091579113124000244e+00 1.450044116999999952e-02 5.965211984755000252e+00 1.889005849364999934e+00 5.602924186799999873e-02 6.060343955601999788e+00 5.929341748839999759e+00 3.984119015535999786e+00 1.913562821888000087e+00 1.942715891798000083e+00 4.013301378437000189e+00 2.068627643925000203e+00 6.000274828265999894e+00 3.934777552598999861e+00 5.984993632377999973e+00 1.874864594938000062e+00 4.055683048964000115e+00 5.994521583455999725e+00 6.045774315671000210e+00 1.997876786505000002e+00 7.988189833999999323e-02 1.953947969911999927e+00 2.034744509467000029e+00 7.923169964796000109e+00 6.133781170854000209e+00 1.995368629266000005e+00 4.001683346171000188e+00 1.954446631313000005e+00 1.850301226350000050e+00 4.106571583913999568e+00 5.963438190908999736e+00 6.002308626422999893e+00 7.836457330018999912e+00 2.041582944477999817e+00 5.882247982323000279e+00 7.917889384780999684e+00 5.919010344825999859e+00 5.863802478069000124e+00 3.922861937272999810e+00 2.069497971282999949e+00 5.775451153208000399e+00 3.975036486212999876e+00 6.169924886349000381e+00 2.092650436876999809e+00 1.910843314857999964e+00 4.040224560598000281e+00 1.915581003745000066e+00 1.932340588555000016e+00 7.962510437038999633e+00 2.011616613243000007e+00 5.840659801778000038e+00 3.898114843330999779e+00 2.007563990394999998e+00 5.924149907530000370e+00 8.034153854795999194e+00 5.881887348093999712e+00 2.025755287113999881e+00 3.895170614827999866e+00 5.937725817862999911e+00 1.928694373326000022e+00 7.991104266783000121e+00 6.003748373925000159e+00 5.997371355540000337e+00 3.946551498668999791e+00 5.958094552898000273e+00 6.007905404234000102e+00 8.119980434885000875e+00
3.073694215399999999e-02 7.921973406571000353e+00 3.922919518700000024e-02 1.999447366999999951e-03 7.902453554846999850e+00 4.141048250908999862e+00 7.819230814498999926e+00 3.995761989271000125e+00 8.135898399273999715e+00 8.884189169900000294e-02 3.855338388608000155e+00 4.087265561261999913e+00 3.986009938008999942e+00 7.426567474200000685e-02 8.096455056296999686e+00 3.960642823938000046e+00 7.920164466756999921e+00 4.097615759927999868e+00 3.879655426076999980e+00 3.958804589156999842e+00 1.122295519299999940e-02 4.008088285501999692e+00 4.019513701142000350e+00 3.999414096475999880e+00 2.126301304266999814e+00 2.035244090897000202e+00 2.143531650428999846e+00 2.008427835955000074e+00 1.898415547262999992e+00 6.211726175495000390e+00 1.968177505624999934e+00 6.072031479625000117e+00 2.065966335499000106e+00 2.023532102511000019e+00 5.865657423223000322e+00 6.131609676467999925e+00 5.956246034936000022e+00 1.918764769939000026e+00 2.042697902722999892e+00 5.956693987953999958e+00 2.032487566567000137e+00 6.148658424625000229e+00 5.921339153271000022e+00 5.901663909786000417e+00 2.008145412145000197e+00 5.945448492066000235e+00 5.930661643781999892e+00 6.266652060404999780e+00 7.935329776675000168e+00 2.236256484586999882e+00 1.967478028249000088e+00 7.875451979268000002e+00 1.994454964533999952e+00 6.111399162016000197e+00 3.851030829600000233e-02 5.965860432370000410e+00 1.844368332896000107e+00 6.109481824400000288e-02 6.120812415159999631e+00 5.896087602166000252e+00 3.970939611379999956e+00 1.875114325608000065e+00 1.908903658989999919e+00 3.971980806692999799e+00 2.124465425537000129e+00 6.004396768199000256e+00 3.924944571739000132e+00 6.015448783233999563e+00 1.824508573042000092e+00 4.078409119623000123e+00 6.010307150583000357e+00 6.061543076043999889e+00 1.991788627994000027e+00 1.206419834959999993e-01 1.951527049964999927e+00 2.071699601395000201e+00 3.669662511499999918e-02 6.187555885929000077e+00 2.023220173626000040e+00 3.971808945635999955e+00 1.950892046572000105e+00 1.785735693726999918e+00 4.101097325906000179e+00 5.941440884560999613e+00 6.035708354237000250e+00 7.845687428764000160e+00 2.076598967278000085e+00 5.850304587113000387e+00 7.929126811187000357e+00 5.878057143720000433e+00 5.797764970160000253e+00 3.911026640118000053e+00 2.095633192721999993e+00 5.713525708298999639e+00 4.002517301023999607e+00 6.262226936272999644e+00 2.148192414283999874e+00 1.885411096504999939e+00 4.049757088692000018e+00 1.891275603410000006e+00 1.935534053782000052e+00 8.007669534663000022e+00 2.037197419743999927e+00 5.809764836682999700e+00 3.889739825659999983e+00 2.021778532306000020e+00 5.904055922712999838e+00 8.016021841651999935e+00 5.850808334668999855e+00 2.040557643755999795e+00 3.879115785160999863e+00 5.927136847705000378e+00 1.887376399479999911e+00 8.016030192046999403e+00 6.031908821973000379e+00 5.986077234480999820e+00 3.926167582220000174e+00 5.974212197596999729e+00 6.034616095156000171e+00 7.191454005999999878e-03
4.469267727299999771e-02 7.919646752731999584e+00 5.542222997599999951e-02 7.936101851099000015e+00 7.890198166481999564e+00 4.168039705825999697e+00 7.777095062603000208e+00 4.006434755155999561e+00 8.138031045174999534e+00 1.217377834469999948e-01 3.812063603551000046e+00 4.086913990908000116e+00 3.994793465741000027e+00 1.009742722070000043e-01 8.076374615886999564e+00 3.964360031306000121e+00 7.913236095133999726e+00 4.108695997673000200e+00 3.841523945265000073e+00 3.957218309338999873e+00 1.762395298400000129e-02 4.029059451979000173e+00 4.043806283210000352e+00 3.970234319206999984e+00 2.150030711823999852e+00 2.068856753865000009e+00 2.174070610918999780e+00 2.030150760415999844e+00 1.853610876173999999e+00 6.190027828803000176e+00 1.962709541841000105e+00 6.098059322282000316e+00 2.031107364671000060e+00 2.022932597196000160e+00 5.857445505523999785e+00 6.138777570777000037e+00 5.993739839454000240e+00 1.899676526679999977e+00 2.043831245184999812e+00 5.941564580012999919e+00 2.022586157246999861e+00 6.137684525776999855e+00 5.912624612621000253e+00 5.891627373993999939e+00 2.024896083742000030e+00 5.941535114018999586e+00 5.955200006884999731e+00 6.263007361558000419e+00 7.904157002806000420e+00 2.244237991260999987e+00 1.972695682152999952e+00 7.875803007174999593e+00 2.015730678926999975e+00 6.091904596467999866e+00 7.157744906099999804e-02 5.952091988994999916e+00 1.824432501558999942e+00 3.216487694299999950e-02 6.137051909695999896e+00 5.935000833161000244e+00 3.958144001576000104e+00 1.863289896496000075e+00 1.868706896574999998e+00 3.884444724008000005e+00 2.153349319488000013e+00 6.041745036371000133e+00 3.941797272895999793e+00 6.048399322000999945e+00 1.805751757642999999e+00 4.032631303039000414e+00 6.005035108410000433e+00 6.076156579635999755e+00 1.960005771103999983e+00 8.498395654899999763e-02 1.955471723163999975e+00 2.093874617195000010e+00 9.045970499000000054e-02 6.193599098891000132e+00 2.070030953685999986e+00 3.911850400011000151e+00 1.959308849604999958e+00 1.785658692903999922e+00 4.012784274907000182e+00 5.966702429192999979e+00 6.057857644961999632e+00 7.937287251126000420e+00 2.074260966566999986e+00 5.847996735678999691e+00 4.010353116200000151e-02 5.904006580709999952e+00 5.750967163830999596e+00 3.949187995912999849e+00 2.036683906787000176e+00 5.758552626142999564e+00 4.036811891562999577e+00 6.312813114785000401e+00 2.153055731495999936e+00 1.900899098892000039e+00 4.009526120099000224e+00 1.905486512406999955e+00 1.987096985740000044e+00 8.081948296142000387e+00 2.058958855768000085e+00 5.856066783659000130e+00 3.896742291653000123e+00 2.023108764339999865e+00 5.893217027776000094e+00 7.968362726752999947e+00 5.850459956872000156e+00 2.034383869471000139e+00 3.914087847759999850e+00 5.921103588194999823e+00 1.860597426088000050e+00 8.050110926078000162e+00 6.036974920405000056e+00 5.924721014603999691e+00 3.885987547058999958e+00 5.998658082484999987e+00 6.045261849431000201e+00 8.112447190956000753e+00
5.861555044100000278e-02 7.923777189182000136e+00 6.975224700599999550e-02 7.934304380928000278e+00 7.881336125922000058e+00 4.190635813835999812e+00 7.745132554290999671e+00 4.012858554669000100e+00 8.143534639299000233e+00 1.490197597519999917e-01 3.776270453775000036e+00 4.083114153613999875e+00 4.003363254174000296e+00 1.230508317069999996e-01 8.061083514935999617e+00 3.972258845085999912e+00 7.907857710264000417e+00 4.117187101596999632e+00 3.806056931846999891e+00 3.955750157035999859e+00 2.318346381799999897e-02 4.050712626845999864e+00 4.067668091990999990e+00 3.946496228232999837e+00 2.149869307498000204e+00 2.096026945510999884e+00 2.177197476732000148e+00 2.045943576831999788e+00 1.851115572014000010e+00 6.185276931729999816e+00 1.961656417509999972e+00 6.113630901726000211e+00 2.003351015448000094e+00 2.008069338328000164e+00 5.841332809972000106e+00 6.150776615104000200e+00 6.047439582931000146e+00 1.889676561241999897e+00 2.058572202750999836e+00 5.929183057503999876e+00 1.998619428767000050e+00 6.136903813205999647e+00 5.904735506421999958e+00 5.885832629969000251e+00 2.065165328676000112e+00 5.939703420498999797e+00 5.988562400369000116e+00 6.241927467438999955e+00 7.842060119331000223e+00 2.185436519231000130e+00 1.989229366957999900e+00 7.850011201304000430e+00 2.027375312599000168e+00 6.040202595588000101e+00 9.210154232900000237e-02 5.924538670678000329e+00 1.834353220781999916e+00 7.920846456915000111e+00 6.111771204007999891e+00 6.030112491332999980e+00 3.961893260023999996e+00 1.875324998166000068e+00 1.851324879107000054e+00 3.831796811477000020e+00 2.154628436817000114e+00 6.094810909575000046e+00 3.989680403402000142e+00 6.084648969693000176e+00 1.821619473738999906e+00 3.947215487234000175e+00 5.988736676215999921e+00 6.076153586715999921e+00 1.909620432692999970e+00 7.912174539905000081e+00 1.967017360799999892e+00 2.090908659046999851e+00 5.355365426699999765e-02 6.148579042520999849e+00 2.120982259968000161e+00 3.881956787527999886e+00 1.992891766150000077e+00 1.847128549203999937e+00 3.953211340050999834e+00 6.026486710314999939e+00 6.073509746133000320e+00 9.979860290700000303e-02 2.047771160432999782e+00 5.861329775385000218e+00 1.029880977590000024e-01 5.977288019407000164e+00 5.738788908770000141e+00 4.039092094425000390e+00 1.911254857669000051e+00 5.883138728299000419e+00 4.062070080466999578e+00 6.302370969745999751e+00 2.110023587849000126e+00 1.937615272056999904e+00 3.979200961196000197e+00 1.944170884887999939e+00 2.051525300121999962e+00 8.112745480163999545e+00 2.067420782079000041e+00 5.961202371644000131e+00 3.904599002043999789e+00 2.006720083129999832e+00 5.900959229286000252e+00 7.935576949399999691e+00 5.872699081128000209e+00 2.027415698182999826e+00 4.002016315060999752e+00 5.924577011232999624e+00 1.861790283728000039e+00 8.057192410773000191e+00 6.020863519699999777e+00 5.850977885212000018e+00 3.848820149943000146e+00 6.022740056455000435e+00 6.062212540413000283e+00 8.030791253757000092e+00
7.128403349400000422e-02 7.936138287043999817e+00 8.043990873900000449e-02 7.935769408314000017e+00 7.877084542669000378e+00 4.210886542062000082e+00 7.725002653720999923e+00 4.016134250089000268e+00 8.152075622961000079e+00 1.703605527810000131e-01 3.751062508093999881e+00 4.080301265603999639e+00 4.012535686919999733e+00 1.395419373039999966e-01 8.053790041022999446e+00 3.983367858078000090e+00 7.907075511069000306e+00 4.123503898314000438e+00 3.777319327453999787e+00 3.956306988086999876e+00 2.537190773800000049e-02 4.072724830312999700e+00 4.090653961840000186e+00 3.931014399408999882e+00 2.141467310378999844e+00 2.104067340002000019e+00 2.139063926910000024e+00 2.043469956242999874e+00 1.891227579214999954e+00 6.205602343137999632e+00 1.964448278097000067e+00 6.112163151527999716e+00 1.995594476883999935e+00 1.984877042378000001e+00 5.818323574628999850e+00 6.156890400833000321e+00 6.089312843164999656e+00 1.895684342310999915e+00 2.082403632869000099e+00 5.936093886766999894e+00 1.979175110618000000e+00 6.145344022466000311e+00 5.902303335134000406e+00 5.886681378819000443e+00 2.094545148522000133e+00 5.944871329584000108e+00 6.011529868838000112e+00 6.217252527731999656e+00 7.831423182284999562e+00 2.098142270704999923e+00 2.015644491807000005e+00 7.825387112695000091e+00 2.015743398580000179e+00 5.982511348749000035e+00 7.910453339999999611e-02 5.887416730843000323e+00 1.869676242186999904e+00 7.868165359260999914e+00 6.064786767405999868e+00 6.132518869183999577e+00 3.958119479437999910e+00 1.902647637607999931e+00 1.882048360845999913e+00 3.861122582165000150e+00 2.131218720149000045e+00 6.140271654758000075e+00 4.050877468578000240e+00 6.127194050143000226e+00 1.866399182562000103e+00 3.883713644525999875e+00 5.968797996800000227e+00 6.053938943459000299e+00 1.862766597210999908e+00 7.841875026839000284e+00 1.976671197526999935e+00 2.054777790015000161e+00 7.917572487601000297e+00 6.071556484330000281e+00 2.153201259663999778e+00 3.910183222612999998e+00 2.052767375874999800e+00 1.936309609814000021e+00 3.954016093806000054e+00 6.086946857441000169e+00 6.086524620269000430e+00 1.240953838439999984e-01 2.018735878536999984e+00 5.869285917744999637e+00 1.277408597370000010e-01 6.059548519359999830e+00 5.769117838399999698e+00 4.129139609623999618e+00 1.765218792625000033e+00 6.025336865035000322e+00 4.081456849705999979e+00 6.226713644742999598e+00 2.037498661408999823e+00 1.967656370312000025e+00 3.990682741086000185e+00 1.976625608163999903e+00 2.084752564247000173e+00 8.095048639819999892e+00 2.056412243631000170e+00 6.077808852093999903e+00 3.913250673862000095e+00 1.976211595639999929e+00 5.927557461973999686e+00 7.979187888555999919e+00 5.904036898260000221e+00 2.039723045106999866e+00 4.094991813016999771e+00 5.940119489009999754e+00 1.899558421562000055e+00 8.049728161462999410e+00 5.996420281111999984e+00 5.809425743020000255e+00 3.872296060230000059e+00 6.031264378489000322e+00 6.107961674419000175e+00 7.971118513506000092e+00
8.099350214000000658e-02 7.954629816255000208e+00 8.589210698700000535e-02 7.942568103783999689e+00 7.876884274274999598e+00 4.230143411741000392e+00 7.716329294691999685e+00 4.018940058210000110e+00 8.162413762247000548e+00 1.845405563910000046e-01 3.739119872740999995e+00 4.081024574907000435e+00 4.022995291146999719e+00 1.485074907950000023e-01 8.055087591839999561e+00 3.995847949648999808e+00 7.912364062380000007e+00 4.128936437754999744e+00 3.759009507986999843e+00 3.962192222590000146e+00 2.276493915799999990e-02 4.094331406971999598e+00 4.111469562712000148e+00 3.925700629136000153e+00 2.131105258068000108e+00 2.094915301163000176e+00 2.085719123394000007e+00 2.028179573912999967e+00 1.942202101277999970e+00 6.232807978345999977e+00 1.962895073529000056e+00 6.083693447817999811e+00 2.010836813655000110e+00 1.960377993073000091e+00 5.812571052900000090e+00 6.163290167959000421e+00 6.098564283384000362e+00 1.909329918415000105e+00 2.112314242070000070e+00 5.965432662972999900e+00 1.980034979168000087e+00 6.159246197362000075e+00 5.917986558003000219e+00 5.908917185773000291e+00 2.100082492798000189e+00 5.959318073701999730e+00 6.010257407966999921e+00 6.194175598914999803e+00 7.928337350622999935e+00 2.022731308595000055e+00 2.041527499344999885e+00 7.863480167099999640e+00 1.979634358686999995e+00 5.953920520825000118e+00 3.927121641399999863e-02 5.850577183161999706e+00 1.924766453723999904e+00 7.862812012442000231e+00 6.019164446939999635e+00 6.195207929169000316e+00 3.937932045950999882e+00 1.936765634259999924e+00 1.958171385251000096e+00 3.929638708506999922e+00 2.084241343768999943e+00 6.166166394601999556e+00 4.081978711020999739e+00 6.174186733134000349e+00 1.929968329585000086e+00 3.871905170404999819e+00 5.944492256958000098e+00 6.019325651404000332e+00 1.839455296546000040e+00 7.914819377226000263e+00 1.970748014101999956e+00 1.990454632107000021e+00 7.916082210456999668e+00 6.002743438265000009e+00 2.154899360591000068e+00 3.962361893494000142e+00 2.118689828343999881e+00 2.013188948657000044e+00 3.973229274047000104e+00 6.122039457546000207e+00 6.091241441739000173e+00 7.956712294399999330e-02 2.002044705538999825e+00 5.864031334485999558e+00 8.421476635800000110e-02 6.114720928807999556e+00 5.829640252075000362e+00 4.141387569838999916e+00 1.647567907315999891e+00 6.127812251726999726e+00 4.092595750715999792e+00 6.106411157071000240e+00 1.966907183163999928e+00 1.976574489062000062e+00 4.003571262650000406e+00 1.978735913631999965e+00 2.070223529491999948e+00 8.067371747484999744e+00 2.025325819994999943e+00 6.151498494286999907e+00 3.930821764601000190e+00 1.946023363778000004e+00 5.960141561838000257e+00 8.085791900353999750e+00 5.931760793513999985e+00 2.071300342962000052e+00 4.114245046354000124e+00 5.966555732819999847e+00 1.971298167997999951e+00 8.068446045016999690e+00 5.976246990673000248e+00 5.820903793938000170e+00 3.960739532978000188e+00 6.005519681104000362e+00 6.177598161964000134e+00 7.982695546871999781e+00
8.675470238299999581e-02 3.624920252000000086e-03 8.613634897899999365e-02 7.953236698862999887e+00 7.878355151631000197e+00 4.246015846198999633e+00 7.717112881715999961e+00 4.022026263955000402e+00 8.171424456497000222e+00 1.910324909020000017e-01 3.740369994351000038e+00 4.083536520685999704e+00 4.033686024739999709e+00 1.486843107389999863e-01 8.062663362754999952e+00 4.006306902526000080e+00 7.922234425323999574e+00 4.133147405087999715e+00 3.751870051691000185e+00 3.974146379095000015e+00 1.616482554299999985e-02 4.113159630393999677e+00 4.127341588661000316e+00 3.929799330375999933e+00 2.107034812533000068e+00 2.066322112599999983e+00 2.053769932909999874e+00 2.008261751846000198e+00 1.979439164176999943e+00 6.237592753731999728e+00 1.946795375570000042e+00 6.054357982810000038e+00 2.046049903597999986e+00 1.940756316717000107e+00 5.843419923533000215e+00 6.177238763490000117e+00 6.095967891697999796e+00 1.914466815714999992e+00 2.143557369000999913e+00 6.008819963551999876e+00 1.996868222076999988e+00 6.177628762010000329e+00 5.953940150948000110e+00 5.948579967777000377e+00 2.093402147928999923e+00 5.978479721768000132e+00 5.984609496305999699e+00 6.178629986201999991e+00 5.604774671499999916e-02 1.979707938545000045e+00 2.055894908157000156e+00 7.961850101329999596e+00 1.930398635703000076e+00 5.979431427781999986e+00 7.967771318630999744e+00 5.830384501671000308e+00 1.995252078357000025e+00 7.940703453225999908e+00 5.983591470050999561e+00 6.205334521850000229e+00 3.943977675363000035e+00 1.970298113723000011e+00 2.047957246159000100e+00 3.988920382259999897e+00 2.026930252993000003e+00 6.169291129583999833e+00 4.063253821496999763e+00 6.204416181839000011e+00 2.003541417609000064e+00 3.891447480321999830e+00 5.916602248005999876e+00 5.995332501837999928e+00 1.857132443567000024e+00 7.678491366900000448e-02 1.948852374274000043e+00 1.923145102336000001e+00 3.261411931500000222e-02 5.983585437486000025e+00 2.129627097095000199e+00 4.015408219402999634e+00 2.155685301006999843e+00 2.052731065217999973e+00 3.981602002712000044e+00 6.124511299137999742e+00 6.082478823115000210e+00 4.609691079299999689e-02 2.005957237795000125e+00 5.859233880060999766e+00 2.255169580800000032e-02 6.118917762487000367e+00 5.890034654951000093e+00 4.082157410468999714e+00 1.612927907125000004e+00 6.163349938934000072e+00 4.071931771364000419e+00 5.982617609387999913e+00 1.932718604199000101e+00 1.968581839055000060e+00 3.985984350299999868e+00 1.951984379400999892e+00 2.026109466863999842e+00 8.067553688337000040e+00 1.978221712637000085e+00 6.151400831502000344e+00 3.957660754876000109e+00 1.934466316870000036e+00 5.982200987069999698e+00 6.668430835999999626e-03 5.952859378874999940e+00 2.105804962970999838e+00 4.022231132693000255e+00 5.998565541505000098e+00 2.054794010319000108e+00 8.107548976630999604e+00 5.966157852313999754e+00 5.889774076109000056e+00 4.035866387525000043e+00 5.943300623993000187e+00 6.232538234927000431e+00 8.044299234836000068e+00
8.852357711599999346e-02 1.172996919100000035e-02 8.229313266000000404e-02 7.965361195018999751e+00 7.880189198008999973e+00 4.255175754810999855e+00 7.726657157388999941e+00 4.024512021136000151e+00 8.177829597087999502e+00 1.910045603390000124e-01 3.753021067775000219e+00 4.084496473460999866e+00 4.042851912520999846e+00 1.407040735329999903e-01 8.074805031187999305e+00 4.011990121739000159e+00 7.935059700724999665e+00 4.134708177703999787e+00 3.754560506281999999e+00 3.990324037450999839e+00 8.158434880999999514e-03 4.126696505492000178e+00 4.135866325824999912e+00 3.940238296665000028e+00 2.067653465214000175e+00 2.012057571764000130e+00 2.059499409075999932e+00 1.987270472474000016e+00 1.991341403122000031e+00 6.210969959163000098e+00 1.922367738076000032e+00 6.031748641013000345e+00 2.095739034515000210e+00 1.931697865277000048e+00 5.903941101492000243e+00 6.195820615579999746e+00 6.093128805663000414e+00 1.914642065665999926e+00 2.165832623962999914e+00 6.050579682777000201e+00 2.018891574652000198e+00 6.205898947388999609e+00 5.994680409742000116e+00 5.990938395240999803e+00 2.080611943970000155e+00 5.991483401465999670e+00 5.947599952592000250e+00 6.172363842802999656e+00 5.415568330000000014e-02 1.982891648794000039e+00 2.048247726146999792e+00 6.107726004800000108e-02 1.896664728635000019e+00 6.054666315546000099e+00 7.940175972259999604e+00 5.847178929402000236e+00 2.068875030011000149e+00 7.708484722500000275e-02 5.955909098003999702e+00 6.180208144973000195e+00 3.993426884535999921e+00 2.000973356653999780e+00 2.113032376113999966e+00 4.045412428304000052e+00 1.979949394449000089e+00 6.150173125212000436e+00 4.015577837960999652e+00 6.193662574755999906e+00 2.079114445334000028e+00 3.927319550217999833e+00 5.896304447270000360e+00 6.005375352305000192e+00 1.916602531914000096e+00 1.518727429860000089e-01 1.921240716383999958e+00 1.889514121659999990e+00 1.296854504580000067e-01 6.029022543001000045e+00 2.086249722121999994e+00 4.080445765371999656e+00 2.141200152196999884e+00 2.047212090043999844e+00 3.997466282931999793e+00 6.100973914607999760e+00 6.066372558734999920e+00 4.216010181500000342e-02 2.026973172579999982e+00 5.884098055293000229e+00 7.973373494509999659e+00 6.071565355834000144e+00 5.925295270221999644e+00 4.021389949865000091e+00 1.697376454872999929e+00 6.139967526021999689e+00 4.009606005971000364e+00 5.898044465536999681e+00 1.949412411134999967e+00 1.958090728566000083e+00 3.953956857319000040e+00 1.919580344042999931e+00 1.988031344414999957e+00 8.092800355620999753e+00 1.921614630079000019e+00 6.090546044772000123e+00 3.998948679310000198e+00 1.946749319585000082e+00 5.991876933983999898e+00 4.487838024500000189e-02 5.979866806375000010e+00 2.126138325037000065e+00 3.884583306990999851e+00 6.030515628054000210e+00 2.112244534584000188e+00 8.096292314550000313e+00 5.972537671639999601e+00 6.004065202262999890e+00 4.057410718163000141e+00 5.874337705690000355e+00 6.225940723185000358e+00 8.094270157622000639e+00
8.677135616200000456e-02 2.121915709799999938e-02 7.538694636999999921e-02 7.977368145720999948e+00 7.883202268083000064e+00 4.256595108924000392e+00 7.745857793533000191e+00 4.025945078127000087e+00 8.184124051113000675e+00 1.853424793400000048e-01 3.776102174081000129e+00 4.082249831498000248e+00 4.049709349088000288e+00 1.263439809269999992e-01 8.091472268241000521e+00 4.013266631252999872e+00 7.950802148579000139e+00 4.132943862461000428e+00 3.765279270814000157e+00 4.008775182978999929e+00 1.116737537000000047e-03 4.134264165917000078e+00 4.136391304864000418e+00 3.954176074533000129e+00 2.028698839699000001e+00 1.938998090329999924e+00 2.094671256197000009e+00 1.973418909637999930e+00 1.987362268954999900e+00 6.172842270623999816e+00 1.908937388662999890e+00 5.999482683347999945e+00 2.152263482231000058e+00 1.942730066166000080e+00 5.969912428304000152e+00 6.217418219350999919e+00 6.081328546604000351e+00 1.924024357486000092e+00 2.152841688150000099e+00 6.072580279910999579e+00 2.036787605892000030e+00 6.245801810158999601e+00 6.021822053225999838e+00 6.028094026171999964e+00 2.068833556920000039e+00 5.981669860971999597e+00 5.918524381725999817e+00 6.166528538194000042e+00 7.982551673389999713e+00 2.028609256295000218e+00 2.012910020402999933e+00 5.397280528699999885e-02 1.905217266111000063e+00 6.143764785270000139e+00 7.915583679779000015e+00 5.914461718045999739e+00 2.123239632689000178e+00 1.314832008469999924e-01 5.937282980018999901e+00 6.144292401068000231e+00 4.038203676403999687e+00 2.028855304832999806e+00 2.121321217779000179e+00 4.105762704608999947e+00 1.957549789373000060e+00 6.112241128645999666e+00 3.960830282342000075e+00 6.142456829787000139e+00 2.145681118986999980e+00 3.994831127928999859e+00 5.895635672944999683e+00 6.055008122410000304e+00 1.996220469053000102e+00 1.339199976809999915e-01 1.901392119173000106e+00 1.913886989037999919e+00 1.573125145220000132e-01 6.115903862508999644e+00 2.029318584746000020e+00 4.155680399707000205e+00 2.078265167182999917e+00 2.009464192494999857e+00 4.034726837401000132e+00 6.067103966577000129e+00 6.051996191683000070e+00 2.696741723999999951e-02 2.044824317069000141e+00 5.959431603690999779e+00 7.969789653090000314e+00 6.002447305493999963e+00 5.941010909984999699e+00 4.015713573395999880e+00 1.876579711648999949e+00 6.088620080650000155e+00 3.943046998292000005e+00 5.875195795607999649e+00 2.000264148104999862e+00 1.956696528236999910e+00 3.944133937785999855e+00 1.908178300899000090e+00 1.986582694188999909e+00 8.110375846555999857e+00 1.868165821906000001e+00 6.013580306710999857e+00 4.061020463838000083e+00 1.971578485451999985e+00 6.004226482456999747e+00 1.260875276799999951e-02 6.024731085624000393e+00 2.128874256478999971e+00 3.856714976135999784e+00 6.057744955563999945e+00 2.121447798888000058e+00 8.001455282335999897e+00 5.998459492382999692e+00 6.125847104582000213e+00 4.045783612919000127e+00 5.839625676640999963e+00 6.137676010322000053e+00 8.096368746553000761e+00