-2.861082212730000174e+04
-2.860911391430000003e+04
-2.860807382979999966e+04
-2.860843200019999858e+04
-2.860867624079999950e+04
-2.860812568860000101e+04
-2.860788388370000030e+04
-2.860771696560000055e+04
-2.860764133679999941e+04
-2.860784821799999918e+04
-2.860797550609999962e+04
-2.860789086659999884e+04
-2.860704188090000025e+04
-2.860669278140000097e+04
-2.860732339919999868e+04
-2.860759214520000023e+04
-2.860653905540000051e+04
-2.860485579080000025e+04
-2.860478765879999992e+04
-2.860477724400000079e+04
-2.860365794209999876e+04
-2.860352505029999884e+04
-2.860286891069999911e+04
-2.860221812869999849e+04
-2.860207776899999953e+04
-2.860320646169999964e+04
-2.860195692939999935e+04
-2.860153096789999836e+04
-2.860248108359999969e+04
-2.860239438639999935e+04
-2.860302374499999860e+04
-2.860275189129999853e+04
-2.860371095369999966e+04
-2.860425256920000174e+04
-2.860400929430000178e+04
-2.860436247129999902e+04
-2.860544821280000178e+04
-2.860619174930000008e+04
-2.860611268769999879e+04
-2.860608515139999872e+04
-2.860648249059999944e+04
-2.860688300840000011e+04
-2.860689886269999988e+04
-2.860699997620000067e+04
-2.860750315029999911e+04
-2.860752393410000150e+04
-2.860772341759999836e+04
-2.860808369110000058e+04
-2.860842510580000089e+04
-2.860861321060000046e+04
-2.860874688180000157e+04
-2.860886648190000051e+04
-2.860860520779999933e+04
-2.860841815610000049e+04
-2.860819207639999877e+04
-2.860788604219999979e+04
-2.860772143610000057e+04
-2.860774279630000092e+04
-2.860789359060000061e+04
-2.860772563779999837e+04
-2.860758573899999828e+04
-2.860792704199999935e+04
-2.860835930599999847e+04
-2.860804429739999978e+04
-2.860747375770000144e+04
-2.860756610269999874e+04
-2.860732798969999931e+04
-2.860675461809999979e+04
-2.860660283780000100e+04
-2.860554472719999831e+04
-2.860494523050000134e+04
-2.860407664550000118e+04
-2.860377815280000141e+04
-2.860475756399999955e+04
-2.860397906510000030e+04
-2.860424227869999959e+04
-2.860344508710000082e+04
-2.860358496970000124e+04
-2.860370789819999845e+04
-2.860446472839999842e+04
-2.860395697999999902e+04
-2.860321794439999940e+04
-2.860374812709999969e+04
-2.860479788980000012e+04
-2.860440525849999904e+04
-2.860366427779999867e+04
-2.860385227099999975e+04
-2.860484937390000050e+04
-2.860434883189999891e+04
-2.860520936670000083e+04
-2.860533728450000126e+04
-2.860610981990000073e+04
-2.860646557499999835e+04
-2.860650449559999834e+04
-2.860674418420000075e+04
-2.860731353870000021e+04
-2.860794062530000156e+04
-2.860794845490000080e+04
-2.860844409829999859e+04
-2.860818642030000046e+04
-2.860800518160000138e+04
-2.860801275739999983e+04
-2.860825375709999935e+04
-2.860781680350000170e+04
-2.860781880559999991e+04
-2.860756265509999866e+04
-2.860813247950000004e+04
-2.860838612920000014e+04
-2.860815286120000019e+04
-2.860828048100000160e+04
-2.860822636970000167e+04
-2.860787066889999915e+04
-2.860769299550000142e+04
-2.860825259970000116e+04
-2.860791607730000032e+04
-2.860754628139999841e+04
-2.860746018869999898e+04
-2.860718459060000168e+04
-2.860675326520000090e+04
-2.860636665580000044e+04
-2.860574102900000071e+04
-2.860485006789999898e+04
-2.860441961230000015e+04
-2.860501910190000126e+04
-2.860584971890000088e+04
-2.860543902800000069e+04
-2.860477116640000168e+04
-2.860445414280000114e+04
-2.860477863739999884e+04
-2.860461152790000051e+04
-2.860405275819999952e+04
-2.860435215239999889e+04
-2.860438672270000097e+04
-2.860298583760000110e+04
-2.860292273589999968e+04
-2.860319818210000085e+04
-2.860395078350000040e+04
-2.860450476229999913e+04
-2.860391305730000022e+04
-2.860381089530000099e+04
-2.860458189299999867e+04
-2.860584616660000029e+04
-2.860642146810000122e+04
-2.860609378329999890e+04
-2.860659337049999885e+04
-2.860746193760000097e+04
-2.860718076799999835e+04
-2.860749078029999873e+04
-2.860774938489999840e+04
-2.860752780730000086e+04
-2.860774357690000033e+04
-2.860739055949999965e+04
-2.860752560119999907e+04
-2.860792139540000062e+04
-2.860776897989999998e+04
-2.860789107979999972e+04
-2.860789521329999843e+04
-2.860853796720000173e+04
-2.860874146979999932e+04
-2.860834531069999866e+04
-2.860786269159999938e+04
-2.860813576430000103e+04
-2.860847977109999920e+04
-2.860811567469999864e+04
-2.860791546300000118e+04
-2.860789130609999847e+04
-2.860777752649999820e+04
-2.860685787369999889e+04
-2.860671857960000125e+04
-2.860681291449999844e+04
-2.860668776060000164e+04
-2.860643909459999850e+04
-2.860604074799999944e+04
-2.860613577820000137e+04
-2.860601807239999835e+04
-2.860553405249999923e+04
-2.860572797429999991e+04
-2.860531705009999860e+04
-2.860547516769999856e+04
-2.860419705679999970e+04
-2.860352020999999877e+04
-2.860437166230000003e+04
-2.860348162859999866e+04
-2.860358724870000151e+04
-2.860248783810000168e+04
-2.860328822569999829e+04
-2.860335566009999820e+04
-2.860406264809999993e+04
-2.860390880449999895e+04
-2.860334605580000061e+04
-2.860391104450000057e+04
-2.860439699689999907e+04
-2.860472385090000171e+04
-2.860496107589999883e+04
-2.860615126850000161e+04
-2.860604504290000114e+04
-2.860572903909999877e+04
-2.860613033429999996e+04
-2.860703802110000106e+04
-2.860704947470000116e+04
-2.860643787670000165e+04
-2.860664182100000107e+04
-2.860757037979999950e+04
-2.860765581089999978e+04
-2.860736507880000136e+04
-2.860788399370000116e+04
-2.860762190090000149e+04
-2.860736650480000026e+04
-2.860807055459999901e+04
-2.860848396119999961e+04
-2.860833928640000158e+04
-2.860752288200000112e+04
-2.860798618580000038e+04
-2.860832180570000128e+04
-2.860792435850000038e+04
-2.860772848099999828e+04
-2.860799710369999957e+04
-2.860757365339999888e+04
-2.860701812240000072e+04
-2.860714079340000171e+04
-2.860705031959999906e+04
-2.860666349020000052e+04
-2.860689171989999886e+04
-2.860723361379999915e+04
-2.860632500660000005e+04
-2.860585577740000008e+04
-2.860606555540000045e+04
