-1.426847116099999938e-02 -2.407936244999999906e-02 -1.344939366200000042e-02 -7.117763491699999334e-02 -1.048509513100000061e-02 -1.107729232799999942e-02 9.683668127599999453e-02 1.892547431700000032e-02 9.013631815099999722e-02 -9.840453787500000327e-02 9.269851734999999537e-02 -6.299353527100000349e-02 1.566525953900000170e-02 -1.259532171090000097e-01 -1.154632056400000002e-02 1.020774354859999983e-01 -2.607187741900000161e-02 4.503114202700000263e-02 3.238625776600000117e-02 7.112495539799999766e-02 2.026442714200000009e-02 3.601946507400000108e-02 1.363128123000000025e-02 4.598251694600000161e-02 -2.131265597589999949e-01 6.324903060799999532e-02 2.995064678050000095e-01 6.117264761800000200e-02 -1.263822418710000006e-01 -4.650654394600000074e-01 -7.402942463000000348e-03 -1.899679853019999864e-01 -2.142524144279999987e-01 -8.226414945299999337e-02 7.676565633300000413e-02 2.221958624489999978e-01 1.850347621679999943e-01 4.654163988699999699e-02 1.803792046849999886e-01 -1.039173676880000008e-01 -2.028014721960000044e-01 -1.034706608179999932e-01 3.973187023500000109e-02 7.983303231600000216e-02 3.480437736159999740e-01 -3.475467895800000290e-02 2.263441618320000126e-01 -2.865061285480000053e-01 6.362088100700000193e-02 -1.624127041039999941e-01 -2.584706629499999853e-02 1.577767653069999942e-01 5.182200204799999876e-02 -9.861250059399999379e-02 2.732124687900000168e-02 -4.101982898499999947e-02 2.390952975499999883e-02 -1.754899494690000117e-01 -8.767754788699999580e-02 1.271090092150000128e-01 -1.566635946799999901e-01 5.586061076400000019e-02 -1.063957464329999963e-01 -3.363980088660000201e-01 -1.154611385300000070e-02 8.449755148399999694e-02 5.477026044700000068e-02 3.126196614000000071e-03 3.910376741600000289e-02 -1.300980169579999957e-01 -6.228007766700000003e-02 -5.159115260000000404e-04 -5.328962361200000053e-02 4.475505309000000348e-03 -1.259388116499999925e-02 -5.985093720000000299e-04 2.538279578140000270e-01 -1.033781789889999941e-01 5.521841868499999945e-02 -2.700800468610000116e-01 -3.225112948100000015e-02 1.412733283510000104e-01 -3.632004771360000106e-01 9.198939966499999898e-02 -2.006233178999999867e-02 3.027988834720000133e-01 -1.228628609900000029e-01 6.388704561999999920e-02 5.754585221700000280e-02 1.343199431429999979e-01 8.943608199999999986e-05 3.950588855099999852e-02 -2.060793933620000129e-01 2.641034123200000083e-01 9.144606644699999898e-02 -8.009105922799999999e-02 -8.940957199299999492e-02 9.180337410800000486e-02 -3.204439277839999933e-01 1.058674317019999978e-01 1.394631835129999942e-01 3.480808012039999788e-01 1.368142659400000023e-02 1.896835034699999867e-01 1.747845355950000124e-01 -9.452741312999999798e-03 8.118986821000000534e-03 -1.170933830280000004e-01 7.743132250900000568e-02 -5.164172396200000098e-02 7.351133580900000297e-02 -4.189547602000000259e-03 -1.814119055000000102e-03 2.574003460200000037e-01 -3.970080293600000004e-02 -1.539935558699999929e-01 -9.987985537599999852e-02 4.670368619999999693e-02 -6.718431355800000282e-02 -1.118398527939999942e-01
-3.990766866599999851e-02 -3.245660383800000326e-02 -1.338946642499999895e-01 -3.462198649000000072e-01 4.783748130000000341e-03 -2.323239098850000128e-01 5.836729989209999969e-01 -2.873137896600000060e-02 4.202768607180000227e-01 -5.613336294449999819e-01 5.102413320809999764e-01 -5.487071309259999863e-01 2.586235346899999968e-02 -6.184626674419999581e-01 -8.018334996400000581e-02 5.010245516360000151e-01 -1.483037919869999999e-01 7.372061143100000491e-02 1.303805990230000045e-01 2.740281687059999971e-01 1.126774332380000021e-01 1.903744793029999993e-01 3.348956849999999708e-02 1.805440528170000059e-01 -1.094595673893000054e+00 3.325094447449999935e-01 9.818255048599999757e-01 3.573674440660000173e-01 -8.083629031140000532e-01 -2.185601653134999989e+00 -2.754943111900000005e-02 -9.445262744519999920e-01 -8.278289461590000453e-01 -4.434163925249999805e-01 1.249279662925000034e+00 9.568682990629999718e-01 9.654694366739999811e-01 3.078139616330000106e-01 9.355592030899999578e-01 -6.122569192169999841e-01 -9.659179570789999669e-01 -2.584995635590000007e-01 1.702454293869999913e-01 3.341022360349999998e-01 1.740551349730999897e+00 -1.193327016900000009e-01 1.076565743515000007e+00 -1.384300510244999893e+00 3.695722360000000106e-04 -9.471715707300000231e-01 -6.613980661899999947e-02 6.505911962579999930e-01 2.465849219790000046e-01 -5.037778732590000308e-01 2.058663725790000065e-01 -1.936395494070000112e-01 2.373458903600000058e-01 -7.163577438189999702e-01 -5.001782719840000002e-01 8.483713234769999501e-01 -5.027565853290000275e-01 3.345968965760000025e-01 -3.471262811040000118e-01 -1.393432784318000106e+00 -2.475715337920000036e-01 5.058080186519999799e-01 2.758743676939999778e-01 2.619979432399999891e-02 3.330790848499999846e-01 -8.425614116309999568e-01 -3.605965060920000020e-01 7.418431481199999622e-02 -2.983133124199999764e-01 -3.704686923550000177e-01 3.360740612600000149e-02 -9.247605770599999497e-02 1.041858400866999990e+00 -4.993395157220000269e-01 3.001111220700000137e-01 -1.029492093083000048e+00 -8.493022839999999707e-04 7.682668386159999807e-01 -2.153595077455999984e+00 5.729644221820000549e-01 -1.720840231449999869e-01 1.543983653526000088e+00 -5.566312379979999614e-01 4.219537924089999947e-01 3.983969669429999749e-01 8.711280169689999964e-01 8.799846968100000222e-02 3.925411576400000269e-01 -1.077861441415000066e+00 1.382518487902000048e+00 3.737328537710000176e-01 -3.758363800299999724e-01 -5.744367512570000001e-01 5.929044302949999512e-01 -1.225698885504999947e+00 5.380396957149999881e-01 7.707133843710000098e-01 1.637819339613000080e+00 4.320693008800000068e-02 9.946112535029999480e-01 5.033686644139999666e-01 -9.063213828900000546e-02 1.911602871799999992e-02 -5.730582935369999964e-01 4.408169957759999757e-01 -3.484825743559999967e-01 3.590133146269999798e-01 -5.054911577000000336e-03 6.899529355300000610e-02 8.030129045989999881e-01 -2.700456972299999925e-01 -8.567014752399999544e-01 -3.889423152259999794e-01 1.627525646759999944e-01 -3.723899809619999890e-01 -9.151249548050000016e-01
-3.303635974000000090e-03 3.160762602000000143e-01 -1.883827479849999875e-01 -4.106954036029999977e-01 1.813387023899999950e-01 -6.234153756000000435e-01 1.064171106072000050e+00 -4.011674241989999778e-01 4.892455810169999975e-01 -8.436221695129999532e-01 8.035011077610000330e-01 -8.542598569629999972e-01 -7.472889586299999443e-02 -7.347558701299999884e-01 1.385228982030000111e-01 6.181525511180000487e-01 -1.481288894370000053e-01 -1.939048803619999872e-01 1.426605173380000036e-01 1.067509560610000047e-01 1.387459023229999922e-01 1.356974547210000048e-01 -6.046853581500000185e-02 4.168669380019999759e-01 -1.534018209484999895e+00 3.539826000190000044e-01 1.722669133680000131e-01 3.592110422109999757e-01 -5.511264302999999837e-02 -8.169250834629999680e-01 7.236457763699999379e-02 -1.059736403739000021e+00 -4.584928040769999935e-01 -7.207647832669999977e-01 9.681892873099999797e-01 8.720175304949999706e-01 1.202650669424000007e+00 3.550690056019999985e-01 9.757507019960000028e-01 -6.615877313310000174e-01 -1.126727388326000057e+00 1.951029129600000134e-01 1.161027280910000015e-01 4.259229920120000124e-01 2.160128876846000079e+00 -5.141123576500000042e-02 1.104605958757000073e+00 -1.580384122863000007e+00 -5.546192373710000512e-01 -1.309786685900000025e+00 4.055048255399999746e-02 1.226052946080000011e-01 1.561629119000000065e-01 -6.861206201959999529e-01 1.755725006580000080e-01 -2.555365677540000213e-01 4.194620344230000075e-01 -5.615012145369999708e-01 -7.750629074049999456e-01 1.243736791803000008e+00 2.054047257599999829e-02 4.583529513719999948e-01 -1.236254704969999979e-01 -8.340363877749999988e-01 -4.838671646769999724e-01 5.665156802249999846e-01 4.382507958260000169e-01 2.523133658499999987e-02 5.418242650660000104e-01 -1.215725934529999996e+00 -3.769689141979999936e-01 -1.926261261299999986e-02 -4.480862157339999818e-01 -1.341281233656000049e+00 1.043404101720000060e-01 -2.531663241170000189e-01 1.953737202009999951e-01 -8.286442491240000319e-01 3.293573987749999765e-01 -5.441486826570000046e-01 1.907996192560000026e-01 1.098204796275999984e+00 -1.496188228712999946e+00 8.112216484700000008e-01 -2.126935798750000106e-01 1.430138132958000075e+00 -6.539195089020000129e-01 5.121540889660000095e-01 6.394887784439999834e-01 1.150526258751999986e+00 3.199166416690000236e-01 8.539445750459999651e-01 -1.474739809401999890e+00 1.842420887994000056e+00 1.043641918540000046e-01 -7.213921043569999636e-01 -8.786970623069999542e-01 7.165391079659999551e-01 -8.916679370760000056e-01 6.676558052400000109e-01 8.586998224770000521e-01 4.528929046579999729e-01 -6.710607090600000102e-02 1.322400338448999957e+00 2.441613398449999917e-01 -2.225259274929999864e-01 1.405235896039999932e-01 -5.565970373749999922e-01 5.205629370050000038e-01 -3.875210285549999800e-01 8.780179355939999875e-01 6.578141860300000532e-02 2.369304519060000114e-01 1.275272065580000114e-01 -4.095922185170000063e-01 -8.902889549660000235e-01 -3.467340116639999748e-01 1.338485531549999941e-01 -3.068392557199999815e-01 -1.311756600068999967e+00
-3.104614034099999892e-02 7.247963228939999780e-01 -2.939010244660000271e-01 -2.764830891180000139e-01 3.033137426160000261e-01 -8.521819157879999551e-01 1.354483592505999923e+00 -7.799216841360000485e-01 2.392580069970000056e-01 -8.858224780790000530e-01 1.059777672003000104e+00 -6.294031774470000284e-01 -1.765068288839999888e-01 -7.156217560859999827e-01 5.147516638179999715e-01 4.764616666040000226e-01 7.768710948000000401e-03 -5.387795759679999685e-01 3.475150535909999894e-01 -1.258156216890000123e-01 -1.275506127079999996e-01 -8.235606583000000536e-02 -2.443975961419999898e-01 7.400472802169999476e-01 -1.268477856310999963e+00 -3.631680876080000120e-01 -1.458112829759999896e+00 -3.218848990700000079e-01 2.351988905109999806e+00 9.104384966959999659e-01 2.179793776889999979e-01 -5.226204747410000406e-01 3.799396150739999811e-01 -7.489029803510000027e-01 -5.856177879549999687e-01 1.756054466230000111e-01 7.929980027830000333e-01 4.035931502230000190e-01 6.391526998919999647e-01 8.514424761399999597e-02 -7.483753981330000249e-01 4.883795942360000253e-01 -3.122075605900000161e-02 1.433771665159999931e-01 1.203254551429000063e+00 3.625992926100000263e-02 3.782199054009999784e-01 -9.148639767689999980e-01 -6.597683044609999881e-01 -1.147074822955000073e+00 1.921853147900000058e-01 -5.558187514040000554e-01 -1.818574714379999901e-01 -5.699722337699999475e-01 -2.173756478069999998e-01 -2.421698311330000020e-01 5.081285914990000263e-01 -3.605514494850000085e-01 -7.306711613609999656e-01 9.353321929190000494e-01 3.380376110750000218e-01 3.977151938740000059e-01 3.852771135859999752e-01 6.393468779140000224e-01 -4.743749774150000098e-01 2.323031243099999976e-01 5.191645651999999833e-01 2.052612372399999913e-02 5.801146636320000383e-01 -7.046492508249999620e-01 -1.916998514530000031e-01 -2.721807735790000016e-01 -3.324244554799999918e-01 -1.447757703141000052e+00 1.352151858179999888e-01 -4.268932771610000065e-01 -1.771589909146999986e+00 -8.865964074150000096e-01 6.061249405900000220e-02 5.541657889709999951e-01 4.214049380100000075e-01 1.054073447786999962e+00 6.382057210389999735e-01 5.753095539879999887e-01 -1.311336140540000084e-01 1.653328372279999903e-01 -4.134660447419999940e-01 2.522343018670000214e-01 3.069119852600000198e-01 7.749877822580000242e-01 5.746745939170000428e-01 8.937750741709999946e-01 -1.116752866761999918e+00 1.314421987205999898e+00 -2.085950955180000121e-01 -1.060434818719000027e+00 -8.124607785459999620e-01 3.477982042619999770e-01 1.987153851800000093e-01 4.143985482059999725e-01 1.959487332379999946e-01 -8.698532996710000020e-01 -2.382147519479999864e-01 9.654311939390000097e-01 -2.300439111000000120e-02 -3.086637018230000140e-01 3.055194629019999941e-01 1.860529841980000099e-01 3.580623068770000250e-01 -1.542813908299999967e-02 9.193454651050000370e-01 1.439431478740000048e-01 4.705484041379999760e-01 -5.565327784870000016e-01 -3.847687366890000238e-01 -2.161407872830000132e-01 -2.654592229799999925e-02 -2.438793830199999929e-02 7.818385795700000251e-02 -7.250670008149999735e-01
-2.280020699520000083e-01 6.848495063139999894e-01 -5.755220341550000285e-01 -2.011427874699999938e-02 2.018822248079999992e-01 -6.755986719380000505e-01 1.317166456442999900e+00 -7.442287420500000028e-01 -1.064686284220000001e-01 -9.352834268099999848e-01 1.389519180831999989e+00 -8.023683047900000143e-02 -2.047888298709999999e-01 -8.645997210300000457e-01 7.013437362019999677e-01 1.725340199669999908e-01 1.834965005130000104e-01 -6.138430439309999764e-01 8.476607725010000260e-01 1.809382533299999998e-02 -5.127447136430000052e-01 -2.887650839929999935e-01 -4.656872039220000259e-01 1.008930398533999906e+00 -4.080994224360000033e-01 -1.116195905132000066e+00 -2.278636130815999916e+00 -1.067304894729000031e+00 2.164240838606999784e+00 1.206886730126000007e+00 1.769441411659999908e-01 -9.091025871310000062e-01 1.022311942957000008e+00 -4.298555105090000050e-01 -5.398533177790000304e-01 -5.426314331930000012e-01 -7.781297196240000158e-01 8.414964381549999706e-01 3.660539938669999938e-01 9.008886794299999501e-01 2.137665793680000037e-01 3.256164152289999780e-01 9.750965213399999387e-02 1.094883428139999948e-01 -7.474067357739999640e-01 2.251185787860000009e-01 -7.136671433979999701e-01 -2.291000351220000009e-01 8.041641436799999987e-01 -4.514975684620000096e-01 1.522719726679999941e-01 -8.959010597100000584e-02 -4.190988341279999752e-01 -1.281653004730000101e-01 -6.040803918170000175e-01 -1.972881943650000025e-01 3.967686682289999767e-01 -1.755674076479999957e-01 -3.956210192719999963e-01 2.282661852999999866e-02 -1.778820302980000101e-01 2.288838719559999901e-01 8.249791073540000408e-01 1.500681267170999922e+00 -4.079726746840000029e-01 -2.216182821949999882e-01 2.174895720259999998e-01 4.266386716799999701e-02 4.590397006560000270e-01 4.183636237539999914e-01 -8.204034291200000550e-02 -4.370138269769999750e-01 8.258248761799999449e-02 6.023862560820000267e-01 -4.365947451800000073e-02 -5.771296585340000007e-01 -8.511023187099999721e-01 -5.774866810100000025e-01 -3.695340485940000197e-01 1.053774024078000027e+00 4.304861913029999765e-01 4.234393273370000155e-01 1.091875279041000013e+00 -8.153487838999999571e-02 -7.667554880900000203e-02 -1.428260338294000009e+00 -2.888797137999999862e-02 -1.595612622370000122e-01 -6.721532520709999625e-01 6.799314713600000670e-02 6.868892397420000018e-01 -8.935929707000000652e-03 -2.832656243810000030e-01 1.795828077839999870e-01 -1.272593609329999986e-01 -1.137313672187000080e+00 -4.929420947770000172e-01 -1.630218454850000109e-01 8.091187023800000544e-01 -1.447481049600000125e-01 -6.022034334179999782e-01 -9.281165241600000115e-01 -3.460009561049999793e-01 1.003560986929999954e-01 -3.147348839999999925e-02 -2.532859458849999745e-01 2.805344378779999759e-01 1.347077947971000000e+00 9.306446393900000280e-02 3.368606138360000224e-01 6.464820702399999564e-02 1.564828508030000065e-01 6.001113497850000256e-01 -3.513775434729999869e-01 -1.724118832160000114e-01 5.547475194959999856e-01 1.060333894451999992e+00 -3.008094087600000077e-01 4.607629781259999779e-01 3.454141503979999972e-01
-4.941087110240000024e-01 2.437549806659999874e-01 -8.159829133970000203e-01 2.078034022630000088e-01 3.656980774699999936e-02 -4.936192849409999917e-01 1.161013330704999902e+00 -3.431182825149999838e-01 -3.583602483089999846e-01 -1.129901645105999997e+00 1.745859611496000108e+00 2.687726051109999847e-01 -1.327846112309999937e-01 -1.155089648696000060e+00 6.882063093720000024e-01 -1.321183005329999993e-01 3.166620901880000116e-01 -4.318622046630000155e-01 1.368282789765000063e+00 4.930939606170000045e-01 -7.122075190229999464e-01 -4.416286818460000152e-01 -6.970769936870000461e-01 1.245474240939000055e+00 -3.075337322900000003e-02 -8.634795796469999507e-01 -7.526205955900000522e-01 -6.661291898119999777e-01 3.539345068770000102e-01 1.896311183659999955e-01 -2.432913693779999997e-01 -1.749271225106999950e+00 1.102922150843000049e+00 -7.051610875300000358e-02 7.580810145430000313e-01 -1.449433943510000100e-01 -2.096967669472999951e+00 3.540898978500000016e-01 2.139614545699999870e-01 9.709983015169999510e-01 1.088871090679000009e+00 7.983801007000000671e-02 7.925356638060000458e-01 1.018001845676999917e+00 -1.395478466586999922e+00 3.239964349880000150e-01 -1.437964118440999917e+00 -5.939960810099999960e-02 2.029548643707999922e+00 2.761776625069999880e-01 -4.566765618699999973e-02 1.085008810563000026e+00 -4.235148660140000132e-01 4.749162358799999817e-01 -4.586723075190000110e-01 -3.518615101199999706e-02 2.816582256699999842e-01 7.585831606159999518e-01 3.191703743000000315e-02 -8.100750806890000266e-01 -3.977711714889999861e-01 7.775348308000000486e-02 7.491790921350000021e-01 5.720415990249999583e-01 -4.145295829230000173e-01 -4.094934014950000201e-01 -6.006219220420000449e-01 2.987601735999999980e-02 2.629855274749999805e-01 9.302966397030000278e-01 -1.117623079700000022e-01 -2.558225215989999857e-01 3.922040728899999773e-01 2.699424142292000006e+00 -3.033640171970000132e-01 -4.872418354999999979e-01 1.393619964568999947e+00 1.313879198519999902e-01 -5.570018253449999790e-01 3.061624171730000232e-01 7.578670239899999717e-02 -2.886473581219999862e-01 2.351677794070000105e-01 -5.334803513070000003e-01 -1.956621258400000063e-01 -1.262096805230999985e+00 2.063567995449999970e-01 -2.999610739870000042e-01 -1.282674143079999940e+00 -5.528382756359999650e-01 4.468442609859999970e-01 -1.522884666896000105e+00 5.126605289610000060e-01 -8.365854079869999849e-01 -1.404167656089999883e-01 -7.562107187590000335e-01 4.314624929099999950e-02 -4.047402628449999762e-01 -5.726251463999999791e-02 -5.712555737359999997e-01 -8.647081447219999717e-01 -2.145656237599999905e-01 -3.436295153669999825e-01 -8.463121898290000278e-01 1.287250371850000019e-01 -2.835919199999999856e-04 3.643789048599999775e-02 9.951698023560000550e-01 -1.394253637429999915e-01 3.106210859549999870e-01 -1.352480661026999931e+00 1.236330263910000032e-01 5.399277001869999815e-01 4.374840184420000222e-01 4.583680976599999873e-02 8.551601020319999913e-01 1.165853139351999967e+00 -6.368144629990000194e-01 3.536616454040000246e-01 1.244766138736000061e+00
-6.228394606149999513e-01 -4.614359651100000126e-02 -7.713121416810000408e-01 3.736633757310000026e-01 8.765719882000000407e-02 -6.535100837249999683e-01 1.221113136917000075e+00 -2.327957486199999995e-02 -4.087104639520000027e-01 -1.186240347298000097e+00 1.871172034873999968e+00 1.927657949990000119e-01 -9.162643953000000618e-02 -1.306715128308999940e+00 7.197686696589999933e-01 -4.348983161639999873e-01 4.728522614569999893e-01 -2.576384830180000196e-01 1.631438911168999972e+00 7.766527906000000314e-01 -5.612325089480000306e-01 -5.882604911990000351e-01 -8.926988902319999974e-01 1.308386475158000106e+00 -7.200654553109999689e-01 -9.116669585879999538e-01 1.251128487869000105e+00 -1.692096213429999940e-01 -8.376461518469999756e-01 -1.284734949971999995e+00 -8.026789957819999710e-01 1.514181790199999877e-01 9.305749501250000222e-01 2.904761735829999858e-01 1.887057427707000024e+00 3.744344846420000206e-01 -5.153372124589999936e-01 -5.655353745779999608e-01 -1.063869317399999959e-02 6.094871512099999666e-01 7.698666613119999891e-01 1.262143472139999889e-01 9.989833955419999967e-01 7.952929103939999633e-01 -5.518061282899999753e-01 1.806209483959999862e-01 -1.265520617226000066e+00 4.012689090429999994e-01 -1.502389452060000075e-01 5.799953528050000306e-01 -2.072691746979999916e-01 1.044941648732000017e+00 -2.185215996160000118e-01 9.297086165679999681e-01 2.288558980999999895e-02 2.809359341800000132e-01 2.150653017280000079e-01 1.463631172347999998e+00 1.964299863710000094e-01 -9.527499005489999950e-01 4.851203152899999926e-01 -4.590740737699999796e-02 1.620456250220000116e-01 -3.045655237620000233e-01 -1.414252213620000032e-01 -4.037814093820000227e-01 -9.088928837130000327e-01 -3.140294822590000146e-01 1.048986339169999948e-01 4.917545022479999917e-01 -6.988925122599999595e-02 1.864828877730000112e-01 7.034324215239999845e-01 8.566498159969999637e-01 -2.722841862509999822e-01 -2.018530460499999915e-02 1.534038262511999928e+00 8.853170174779999568e-01 -4.478314970689999952e-01 -9.368558343400000543e-02 -5.463807737650000496e-01 -6.788083085560000507e-01 -2.836138956509999809e-01 -5.831287757649999959e-01 -2.533808825369999740e-01 3.393081485289999866e-01 3.596922804800000151e-01 -2.385876078600000089e-02 -2.362005680990000023e-01 -9.115897815400000326e-01 -5.779263963100000207e-02 -1.253951164205000079e+00 1.462919117078000042e+00 -1.226244460708000084e+00 -5.542671784360000409e-01 1.325422300999999983e-02 6.613654189559999841e-01 -2.997706482190000132e-01 -5.850716430160000092e-01 -5.043369200380000139e-01 -4.900276320020000020e-01 5.195201021719999535e-01 -2.393408123580000046e-01 -1.326444026717999991e+00 1.171123648619999957e-01 3.444489866900000141e-01 -2.306119460040000069e-01 -1.946950551290000109e-01 -1.650418837919999937e-01 2.073015196499999879e-02 -1.968809033542000098e+00 5.895335352000000140e-02 1.475859994319999868e-01 4.042487343739999961e-01 1.622610094009999948e-01 9.325144369369999797e-01 -3.786241184510000246e-01 -6.329023486039999646e-01 -2.926056561490000263e-01 8.391602816769999640e-01
-5.981840963260000033e-01 -4.560038072000000345e-03 -5.642656909969999690e-01 4.122303966399999964e-01 3.135586147789999889e-01 -9.194986340949999892e-01 1.489438312924000085e+00 4.118886101600000016e-02 -1.676390426019999935e-01 -9.401740729899999982e-01 1.699698591366000100e+00 -1.022701149559999967e-01 -1.497769207980000072e-01 -1.141033889357000009e+00 8.620510277730000226e-01 -6.262295253140000018e-01 6.171682938250000472e-01 -2.510600572219999771e-01 1.563217689965000101e+00 6.452018529149999848e-01 -1.386027444250000074e-01 -7.404735348090000224e-01 -1.004101983815000043e+00 9.924161666370000523e-01 -7.332596731120000211e-01 -1.210828512148999891e+00 2.032318272334999953e+00 -7.696491936999999908e-03 -1.391233511620000085e+00 -1.583712392784000000e+00 -3.853951513789999894e-01 5.851838070360000366e-01 6.456520036880000202e-01 5.601022995319999698e-01 1.497773074503000013e+00 2.551559576040000055e-01 1.603866892659999988e-01 -2.648886530319999877e-01 -3.765276955110000157e-01 -1.010046942160000016e-01 2.172529462339999884e-01 5.020060250840000515e-01 2.167089058239999866e-01 5.925230917899999838e-02 -2.606288340660000147e-01 -2.339912194129999956e-01 -4.228737936849999990e-01 6.268658437470000511e-01 -1.681034749089000080e+00 8.168603490410000223e-01 -3.697724464400000133e-01 -3.564355333309999763e-01 3.139955351059999789e-01 8.558060897589999660e-01 1.084039058199999933e-01 6.504290092390000444e-01 1.839415596100000064e-02 6.884687363200000521e-01 1.764349651159999866e-01 -5.521130564789999973e-01 8.251802218320000160e-01 -7.268341033599999557e-02 -4.802919861500000165e-01 -7.268204932300000032e-02 2.392636584210000028e-01 -3.372960599629999945e-01 -4.210221760639999977e-01 -7.011346261569999516e-01 -1.882540419999999964e-02 2.068727160390000097e-01 1.769463284899999989e-01 6.261239620990000088e-01 7.049809571249999740e-01 -9.251202057449999794e-01 -6.744574653800000652e-02 6.401062768730000352e-01 3.206134663499999871e-01 1.141788743523000083e+00 -2.533399766069999726e-01 1.905521816390000067e-01 -8.959957901649999723e-01 -7.807122023850000536e-01 1.469702602740000086e-01 -4.050672646690000045e-01 -8.554602263999999678e-02 6.005415588100000424e-01 3.042352407580000140e-01 5.260533326730000292e-01 6.488737307949999922e-01 -8.551489446619999768e-01 -4.857003759849999880e-01 9.054511061999999388e-02 2.049387789070999943e+00 -9.812617311900000416e-01 -7.075866205370000550e-01 8.101114201169999918e-01 9.080383859889999965e-01 -1.884712708399999964e-02 -2.244305975589999946e-01 -5.936263232499999765e-02 1.574502298150000090e-01 4.900931760730000142e-01 -1.165027289309999992e-01 -9.949689071459999479e-01 2.217504400720000102e-01 4.310534852669999917e-01 -2.177785193879999970e-01 -9.610290109479999732e-01 1.114934188839999951e-01 -2.791692560680000268e-01 -7.865169583940000431e-01 -4.191678477999999722e-03 -5.255311897400000154e-01 -8.591180251029999493e-01 3.040058192099999723e-01 7.353798022759999720e-01 -1.003580796714000023e+00 -4.276431354099999999e-02 -1.058794292915999913e+00 -2.533190196589999998e-01
-4.952733765530000221e-01 1.431510708250000041e-01 -3.640070314120000261e-01 2.487264049590000026e-01 5.108815867479999939e-01 -9.839368267429999815e-01 1.602044957499000111e+00 -2.567152032999999930e-03 3.162850667400000093e-01 -7.301552925900000046e-01 1.482368703124000042e+00 -2.993060078609999786e-01 -2.269040313790000041e-01 -7.875447696520000429e-01 8.992081065720000099e-01 -5.073211766720000515e-01 6.531680321199999639e-01 -3.036553122749999778e-01 1.250685194946000056e+00 3.376043092720000249e-01 2.296504627360000106e-01 -7.762808023110000510e-01 -9.965142129620000455e-01 5.384822846479999647e-01 2.124333787880000046e-01 -7.263434717440000465e-01 1.495222239639000028e+00 4.665980625810000060e-01 -8.104283131889999936e-01 -3.654240842820000168e-01 6.698573201699999924e-01 -3.714319109740000235e-01 1.941702374610000115e-01 1.080122271962999925e+00 1.320258164270000090e-01 1.623537872230000068e-01 -3.146876703459999813e-01 5.065959967730000457e-01 -1.940355833421999909e+00 -1.030583539660000048e+00 -2.215226234600000121e-01 7.708678833480000492e-01 -7.303083887619999937e-01 -2.864671857080000050e-01 9.035103249999999753e-02 -1.095291866309000106e+00 6.190861074650000351e-01 1.216806374709999972e-01 -1.074710226551000014e+00 7.243875116379999701e-01 -4.302611596629999924e-01 -1.499986911796999944e+00 7.673618139740000510e-01 1.692081358660000034e-01 8.983903293700000459e-02 8.521999570349999553e-01 -3.686042025949999856e-01 -1.046277642940999897e+00 1.934416462419999982e-01 -1.041908918980000015e-01 -1.210799090219999985e-01 -5.485088252599999714e-02 -1.000401375645999957e+00 1.062443187179999970e-01 4.758711765629999868e-01 -2.618227092539999745e-01 -1.078693808700000034e-02 -6.321152306620000383e-01 -2.032980120460000095e-01 5.262365025199999824e-01 3.804542953180000131e-01 6.982273577149999966e-01 2.859629555950000124e-01 -1.681780199530999997e+00 1.641655484270000132e-01 1.024410010009999983e+00 -1.298521671367999897e+00 6.605174585669999487e-01 -1.538836821419999890e-01 1.869794029090000032e-01 -7.760241575940000081e-01 -5.266969010069999513e-01 4.211325783329999961e-01 -1.122857824610000027e-01 9.276952080200000228e-02 -2.550444987969999744e-01 -4.965123684899999668e-02 8.614381866289999579e-01 3.420282755190000024e-01 -2.802248931399999865e-01 -3.334228143919999998e-01 1.038939718870999895e+00 1.499636585678000067e+00 -3.946348489129999915e-01 -1.321403704600000034e-02 1.146707770741000054e+00 5.609336658150000376e-01 1.866764389889999931e-01 4.386903627459999844e-01 4.031461872880000019e-01 6.728842668650000247e-01 -1.528355268909999953e-01 1.126406697650000066e-01 -1.379298122579999952e-01 3.545486773379999956e-01 1.978926294209999992e-01 6.962064157300000555e-02 -1.202143430315000039e+00 3.013147839970000130e-01 -2.693707503750000232e-01 2.181011887087000112e+00 -7.108631332900000599e-02 -8.713118676179999467e-01 -1.566761957425000018e+00 3.644408528820000104e-01 5.608272075600000128e-02 -5.172411314160000328e-01 6.816354254819999570e-01 -1.335983477437000078e+00 -8.485539593159999727e-01