-2.738037138454765707e+00 5.532599458200597063e-04 1.156493726042509690e-01 5.532599458200597063e-04 -2.321457566761475189e+00 -3.826477034733570537e-02 1.156493726042509690e-01 -3.826477034733570537e-02 -3.366367172804092700e+00
-1.031203390337782189e+00 1.085606688415652887e-01 6.813289797383540458e-01 1.085606688415652887e-01 2.059762597968477937e+00 -2.089735105627794076e-01 6.813289797383540458e-01 -2.089735105627794076e-01 -1.261601716963299813e+00
2.432622712188848568e-01 -1.881224548767255478e-01 9.040029506900427725e-01 -1.881224548767255478e-01 4.297963107201956845e+00 -1.296741904367702536e-01 9.040029506900427725e-01 -1.296741904367702536e-01 -1.526631943963257854e+00
1.347786960210859419e+00 -9.505653588928829612e-01 7.413677546338953706e-01 -9.505653588928829612e-01 7.009567530657644596e+00 -3.253512525654917997e-01 7.413677546338953706e-01 -3.253512525654917997e-01 -1.050884710765577879e+00
6.299209540295513499e+00 -2.776341164272055351e-01 6.487049047552376768e-01 -2.776341164272055351e-01 1.337147359152259973e+01 -8.406533904555788528e-01 6.487049047552376768e-01 -8.406533904555788528e-01 3.466024322753744169e+00
1.027864593622947886e+01 4.344319129077630071e-01 4.038958417338536222e-01 4.344319129077630071e-01 1.597044338454587198e+01 -1.513625182459569007e+00 4.038958417338536222e-01 -1.513625182459569007e+00 3.315529799833153213e+00
5.326026462567877928e+00 2.155875563647633997e-01 3.807136813553461674e-01 2.155875563647633997e-01 6.050982790716209259e+00 -2.344774622286655230e+00 3.807136813553461674e-01 -2.344774622286655230e+00 -4.607103407899196590e+00
-1.413845391571774357e+00 -1.512194585241859353e-02 9.641634060087960201e-01 -1.512194585241859353e-02 -3.106301207070766957e+00 -2.309005323628644746e+00 9.641634060087960201e-01 -2.309005323628644746e+00 -1.151564847680657877e+01
-3.567687852932356574e+00 -2.375852908994952051e-01 1.222617274679001165e+00 -2.375852908994952051e-01 -4.982214590225159334e+00 -1.260626940957341180e+00 1.222617274679001165e+00 -1.260626940957341180e+00 -1.091866625099523169e+01
-3.692047850156711775e+00 -3.564051069550849826e-01 1.052988186447980645e+00 -3.564051069550849826e-01 -3.776827258656897168e+00 -7.746423362754336628e-01 1.052988186447980645e+00 -7.746423362754336628e-01 -8.230582244713735562e+00
-5.833157135688816552e+00 -5.331170103922686643e-01 2.428589354215422713e-01 -5.331170103922686643e-01 -4.261955447152316445e+00 -1.330487675440651385e+00 2.428589354215422713e-01 -1.330487675440651385e+00 -8.980484115372469489e+00
-7.618673281530157659e+00 -4.487199386194752337e-01 -7.962439621407313428e-01 -4.487199386194752337e-01 -5.699420834904662669e+00 -2.318910720432890482e+00 -7.962439621407313428e-01 -2.318910720432890482e+00 -1.085637603425201192e+01
-9.506415573636507688e+00 -7.190757000521947884e-01 -1.114381380926818377e+00 -7.190757000521947884e-01 -5.312766992607837579e+00 -2.794393504185197497e+00 -1.114381380926818377e+00 -2.794393504185197497e+00 -5.781274737174277867e+00
-1.001740476840109828e+01 -1.666875157852129918e+00 -5.377104462932245088e-01 -1.666875157852129918e+00 -4.455114810951888771e+00 -1.964493532899693085e+00 -5.377104462932245088e-01 -1.964493532899693085e+00 -5.221661258504326497e+00
-5.279209936844494244e+00 -1.895547284861649251e+00 3.493802187373865609e-01 -1.895547284861649251e+00 -5.999987244419606292e+00 2.345852696475924093e-01 3.493802187373865609e-01 2.345852696475924093e-01 -1.078406966768696940e+01
-4.835889973017990506e-01 -8.839652288640043043e-01 3.386706127242714026e-01 -8.839652288640043043e-01 -8.774916996157257287e+00 2.219957034425676490e+00 3.386706127242714026e-01 2.219957034425676490e+00 -1.236288165710218934e+01
5.324760960683176947e+00 -9.618610427074317792e-01 1.166666976233377895e+00 -9.618610427074317792e-01 -9.412630098351762342e+00 2.880143824047697976e+00 1.166666976233377895e+00 2.880143824047697976e+00 -9.865100933926827409e+00
7.175565053985687669e+00 -1.425030950611499314e+00 1.190266698623049235e+00 -1.425030950611499314e+00 -5.418707619487915572e+00 1.115709983374824299e+00 1.190266698623049235e+00 1.115709983374824299e+00 -6.401204894594553219e-02
1.083442199566634567e+00 -2.227918727406674737e-01 3.544780481427170504e-01 -2.227918727406674737e-01 1.623153406880246674e+00 -1.988015537133857480e+00 3.544780481427170504e-01 -1.988015537133857480e+00 1.641237049546955484e+00
-2.222769572017501361e+00 2.437828715774597033e+00 -2.184784876008765420e-01 2.437828715774597033e+00 1.374995196960312072e+01 -3.564821410161048032e+00 -2.184784876008765420e-01 -3.564821410161048032e+00 -3.100032424808712328e+00
4.239715426413179777e+00 1.058816539841333171e+00 -2.717267262958322771e-01 1.058816539841333171e+00 1.452734840029911290e+01 -2.196009954133427033e+00 -2.717267262958322771e-01 -2.196009954133427033e+00 -4.311454039728945808e+00
7.100451874953256137e+00 -1.253503252583498373e+00 -1.555322462510682624e-01 -1.253503252583498373e+00 3.575147880029953207e+00 6.180581901924029342e-01 -1.555322462510682624e-01 6.180581901924029342e-01 -1.035359989659057334e+01
1.390727819441175228e+01 -2.066380726337144758e+00 -1.211105816063098528e+00 -2.066380726337144758e+00 -4.885475147674243068e+00 1.598427961848992496e+00 -1.211105816063098528e+00 1.598427961848992496e+00 -5.187452012716559757e+00
1.055147114190761393e+01 -2.591971412553925269e+00 -9.664458596905575183e-01 -2.591971412553925269e+00 2.261749344699035102e+00 1.444337518360322425e+00 -9.664458596905575183e-01 1.444337518360322425e+00 4.316947656275219813e+00
2.726348088190299279e+00 -3.055633450812117680e+00 -5.466322086855632950e-02 -3.055633450812117680e+00 6.754470404662609617e+00 1.214818898517056184e-01 -5.466322086855632950e-02 1.214818898517056184e-01 8.575758730479206005e-01
-7.541815035228604636e+00 -2.443050351404940201e+00 3.791342775591645120e-01 -2.443050351404940201e+00 -5.799540671854279406e-02 -1.620237329070354448e+00 3.791342775591645120e-01 -1.620237329070354448e+00 -9.515875999832745791e+00
-9.050292502078400858e+00 -2.243690327377894089e+00 1.569708917247353841e-01 -2.243690327377894089e+00 -1.373763707303328419e+00 -1.679311096125366998e+00 1.569708917247353841e-01 -1.679311096125366998e+00 -1.163631358917792014e+01
-1.089370059856802442e+01 -2.886879012975095193e+00 5.796630161635319967e-01 -2.886879012975095193e+00 -1.203435603359422679e+01 3.936295840693985415e+00 5.796630161635319967e-01 3.936295840693985415e+00 -9.080107504497453519e+00
-6.445667462478106735e+00 -5.153268299090990823e+00 1.215711282762967693e+00 -5.153268299090990823e+00 -1.892006400712258340e+01 3.703747516347200897e+00 1.215711282762967693e+00 3.703747516347200897e+00 -1.897939038299579195e+01
-5.398668901279252808e+00 -5.796584189038645363e+00 1.412264629311394293e+00 -5.796584189038645363e+00 -1.902177830909277390e+01 3.564154710181522967e-01 1.412264629311394293e+00 3.564154710181522967e-01 -2.049202505685682851e+01
-1.335089733357110831e+01 -3.444914994513050832e+00 1.808340050630478535e+00 -3.444914994513050832e+00 -1.656523321729020992e+01 -8.585358901278613564e-01 1.808340050630478535e+00 -8.585358901278613564e-01 -2.479931001543909375e+01
-1.641939222518530528e+01 -2.114971710639490243e-01 -1.037173461590609226e-02 -2.114971710639490243e-01 -8.974827975850677930e+00 -9.175065871321625988e-01 -1.037173461590609226e-02 -9.175065871321625988e-01 -2.289441974911875022e+01
-1.806698460096825798e+01 9.739449626815888106e-01 4.733006169338477842e-01 9.739449626815888106e-01 -4.632055234913151409e+00 -3.399416581840490448e+00 4.733006169338477842e-01 -3.399416581840490448e+00 -2.398648896862673752e+01
-1.674478234357942696e+01 9.131668690936918242e-01 7.618861138938072264e-01 9.131668690936918242e-01 -8.938579820780720553e+00 -3.935943535322504516e+00 7.618861138938072264e-01 -3.935943535322504516e+00 -1.704189805909766875e+01
-1.784550998270249167e+01 1.140462521949885843e+00 -1.165583867623119829e+00 1.140462521949885843e+00 -1.615491970753480544e+01 -2.355588603325481145e+00 -1.165583867623119829e+00 -2.355588603325481145e+00 -9.793733184518650603e+00
-1.895910034820077072e+01 3.366456350283951182e-01 -1.430469869209743061e+00 3.366456350283951182e-01 -2.297169845618899942e+01 -5.458568964593655259e-01 -1.430469869209743061e+00 -5.458568964593655259e-01 -9.626394837962042317e+00
-2.033319667733512404e+01 -4.951316241185589329e-01 -5.862015457039608801e-01 -4.951316241185589329e-01 -2.334022984101514808e+01 -7.194142110572333548e-01 -5.862015457039608801e-01 -7.194142110572333548e-01 -1.495858081130421091e+01
-1.808426059629060845e+01 -1.377161431957608650e+00 7.036329990253645805e-01 -1.377161431957608650e+00 -1.698651506925301646e+01 -1.569367220328892643e+00 7.036329990253645805e-01 -1.569367220328892643e+00 -1.958353453160125568e+01
-9.347682868861687311e+00 -1.915104553722874137e+00 1.292460550601744584e+00 -1.915104553722874137e+00 -8.488349749248492060e+00 -1.715533466068668966e+00 1.292460550601744584e+00 -1.715533466068668966e+00 -1.446995849801406386e+01
-1.758762428713852355e+00 -3.605313299123647508e-01 1.318664710623068947e-01 -3.605313299123647508e-01 1.812397363127062011e+00 -2.031262763808433292e+00 1.318664710623068947e-01 -2.031262763808433292e+00 -9.199855453933311722e+00
6.819643094973919517e+00 7.689073793678516955e-01 -7.877394683682656940e-01 7.689073793678516955e-01 8.035089771160015104e+00 -1.496992893932227453e+00 -7.877394683682656940e-01 -1.496992893932227453e+00 -9.485870964828741592e+00
1.304626829170901914e+01 -7.560590844849930658e-02 -2.727905168255949087e-01 -7.560590844849930658e-02 1.062390643997347262e+01 -6.901887539028692675e-01 -2.727905168255949087e-01 -6.901887539028692675e-01 -8.226671777701239918e+00
1.499445252617100621e+01 -9.757711113025708816e-01 3.017186486677318480e-01 -9.757711113025708816e-01 1.293303810916398788e+01 -6.311411367347208312e-01 3.017186486677318480e-01 -6.311411367347208312e-01 -1.029081865278643315e+00
1.727733867294319836e+01 -8.425239390577088372e-01 7.253973569705894908e-01 -8.425239390577088372e-01 1.520108215592029843e+01 -1.079842034946355112e+00 7.253973569705894908e-01 -1.079842034946355112e+00 3.491745265623472871e+00
1.777736623407074035e+01 -3.705672004704200773e-01 4.575469169502458522e-01 -3.705672004704200773e-01 1.696368954014604924e+01 -1.078026860124495334e+00 4.575469169502458522e-01 -1.078026860124495334e+00 3.994094790290866115e+00
1.755321370089602695e+01 -3.785336780840141691e-01 6.692255889113772616e-02 -3.785336780840141691e-01 1.977954198260823304e+01 -8.478021195049401104e-01 6.692255889113772616e-02 -8.478021195049401104e-01 5.622525884499422588e+00
1.752628381438574934e+01 -5.401132976044080714e-01 3.275794289168078577e-01 -5.401132976044080714e-01 1.917453617053145365e+01 -4.310572077745778441e-01 3.275794289168078577e-01 -4.310572077745778441e-01 7.949011593021385380e+00
1.507917297971046899e+01 -4.434563884981676529e-01 8.069623726589222334e-01 -4.434563884981676529e-01 1.710505115969783674e+01 -4.090968597490757808e-01 8.069623726589222334e-01 -4.090968597490757808e-01 9.445279857405187940e+00
1.169231061238668623e+01 -2.703518324645735049e-01 -4.808475751236522197e-04 -2.703518324645735049e-01 1.808096703907421698e+01 -4.049918515612085934e-01 -4.808475751236522197e-04 -4.049918515612085934e-01 6.080586883325381997e+00
8.902228913538129618e+00 -1.506522359646817188e-01 -5.226638671503055500e-01 -1.506522359646817188e-01 1.834745262776931085e+01 -5.898412131630612620e-01 -5.226638671503055500e-01 -5.898412131630612620e-01 7.400939061754815418e-01
8.313398725069280459e+00 -9.210865827290361241e-02 -5.344923097556149028e-01 -9.210865827290361241e-02 1.371681407610442882e+01 -5.081732610910721926e-01 -5.344923097556149028e-01 -5.081732610910721926e-01 -5.892624626994987125e+00
8.875555397920845024e+00 -4.264808473507734621e-01 -4.993974591579727340e-01 -4.264808473507734621e-01 4.797847767414920916e+00 2.025642722919170080e-02 -4.993974591579727340e-01 2.025642722919170080e-02 -9.746026805811521143e+00
7.496664116329265326e+00 -1.157440767930109971e+00 -1.535618510744378162e-01 -1.157440767930109971e+00 -1.257862969216661408e+00 4.966743196595261312e-01 -1.535618510744378162e-01 4.966743196595261312e-01 -1.122577382281528457e+01
1.232296282884820737e+00 -1.186892422490398502e+00 8.866836134036654160e-02 -1.186892422490398502e+00 -5.794239202963009205e+00 5.472360964821811891e-01 8.866836134036654160e-02 5.472360964821811891e-01 -1.492378771721542741e+01
-6.147983304948904326e+00 -5.073026913075409094e-01 -1.071710245274568180e-01 -5.073026913075409094e-01 -9.602571952208448280e+00 2.164629258189632310e-01 -1.071710245274568180e-01 2.164629258189632310e-01 -1.911810617213925667e+01
-1.008532170198651379e+01 5.370544172369555724e-01 -4.199864562589165073e-01 5.370544172369555724e-01 -1.165496482115279697e+01 -2.983340139632351673e-01 -4.199864562589165073e-01 -2.983340139632351673e-01 -1.916156569783469621e+01
-1.024795355099387884e+01 1.774132454674897774e+00 -5.180496192459653759e-01 1.774132454674897774e+00 -1.039406577810104260e+01 -1.240598221390026845e+00 -5.180496192459653759e-01 -1.240598221390026845e+00 -1.318491839927293618e+01
-8.137553594569553184e+00 2.413387320723688667e+00 -2.409943791660721091e-01 2.413387320723688667e+00 -4.055330654842602911e+00 -2.182226149182624475e+00 -2.409943791660721091e-01 -2.182226149182624475e+00 -7.489642009156576741e+00
-6.049644965316750778e+00 1.639130868732092017e+00 -2.144782891275214542e-01 1.639130868732092017e+00 1.246203959930266114e+00 -2.343495715427794224e+00 -2.144782891275214542e-01 -2.343495715427794224e+00 -1.002328303840875812e+01
-4.486434412589176191e+00 8.755950954934929031e-01 -1.944515229806122458e-01 8.755950954934929031e-01 -3.659743853998937091e+00 -1.645322343576962831e+00 -1.944515229806122458e-01 -1.645322343576962831e+00 -1.342150347669644894e+01
-5.160783750079049881e+00 4.428401020310789860e-01 -2.243427103745527784e-01 4.428401020310789860e-01 -1.147423468641422595e+01 -1.293266383899276839e+00 -2.243427103745527784e-01 -1.293266383899276839e+00 -1.516810088857373806e+01
-7.453056590459588904e+00 -3.499621998628352215e-01 -1.939551006580636228e-01 -3.499621998628352215e-01 -1.367661230547384044e+01 -1.319037700595288576e-01 -1.939551006580636228e-01 -1.319037700595288576e-01 -1.726442514074421197e+01
-8.774795727179666827e+00 -6.006661218590995110e-01 -3.386567496281788769e-01 -6.006661218590995110e-01 -7.962068824138068379e+00 1.078315658705556901e+00 -3.386567496281788769e-01 1.078315658705556901e+00 -1.588092503910800524e+01
-6.240241548093280244e+00 -2.726994665992988343e-01 -8.657854874087341779e-01 -2.726994665992988343e-01 4.828534487534126285e+00 3.410905488284317610e-01 -8.657854874087341779e-01 3.410905488284317610e-01 -8.020636009309226822e+00
-5.064357660455569565e-01 -4.071204621067228691e-01 -8.550218944709115920e-01 -4.071204621067228691e-01 1.151698836064766240e+01 -3.575978830065457692e-01 -8.550218944709115920e-01 -3.575978830065457692e-01 -2.681885366139926230e+00
1.475283061295918907e+00 -3.243339942438421691e-02 -4.629607100390978336e-01 -3.243339942438421691e-02 2.239060513389808715e+00 1.621799202040789811e-01 -4.629607100390978336e-01 1.621799202040789811e-01 -7.956182534730219524e-01
-4.779432986379900106e-01 9.115550129822139747e-01 -3.330790148265886375e-01 9.115550129822139747e-01 -5.044235574094836139e+00 6.030742514861359843e-02 -3.330790148265886375e-01 6.030742514861359843e-02 -4.302403569364105174e+00
-1.451123659873135852e+00 1.126589016774990570e+00 5.134797192200964977e-01 1.126589016774990570e+00 -3.797247544306123324e+00 -1.190838680681541167e-01 5.134797192200964977e-01 -1.190838680681541167e-01 -7.877702150188291341e+00
3.436994625600475306e+00 1.954609353711699082e+00 1.092605886926021563e+00 1.954609353711699082e+00 1.115125071266948042e+00 -1.162016939702987139e+00 1.092605886926021563e+00 -1.162016939702987139e+00 -4.430211074878915412e+00
1.597159762632666258e+01 2.469250028219803994e+00 4.487937689741924863e-01 2.469250028219803994e+00 8.345350610801915536e+00 -1.971720989750234132e+00 4.487937689741924863e-01 -1.971720989750234132e+00 -1.579522295529326437e+00
1.268832163636502841e+01 7.186663136121759221e-01 9.238572550002751571e-01 7.186663136121759221e-01 1.168854318734394226e+01 -2.068777109785048918e+00 9.238572550002751571e-01 -2.068777109785048918e+00 -6.508539809248314434e+00
5.740595206351674307e+00 -2.953073827371539561e-01 5.560835598751600051e-01 -2.953073827371539561e-01 7.300920604687513915e+00 -2.122795513027051495e+00 5.560835598751600051e-01 -2.122795513027051495e+00 -8.642019923694130412e+00
3.070739978059303876e+00 6.778483418542247119e-02 -5.591408116876351447e-02 6.778483418542247119e-02 6.260907655011255457e+00 -3.317673361350912842e+00 -5.591408116876351447e-02 -3.317673361350912842e+00 -3.555154754617355195e+00
4.610648153780010361e+00 -3.025131817089097286e-01 -6.226791544616202545e-01 -3.025131817089097286e-01 1.165539409721571751e+01 -3.441493319274392615e+00 -6.226791544616202545e-01 -3.441493319274392615e+00 7.140676658734125049e+00
1.490399787226312434e+01 -1.214304289555268035e+00 -1.760119076989608677e+00 -1.214304289555268035e+00 1.394211767394322088e+01 -2.495404488857811742e+00 -1.760119076989608677e+00 -2.495404488857811742e+00 1.431211759737756850e+01
6.185427353956278296e+00 -1.847800315882829114e+00 -1.134573758176352420e+00 -1.847800315882829114e+00 2.494894691498628969e+00 -2.924265782910402844e+00 -1.134573758176352420e+00 -2.924265782910402844e+00 -2.898025818257451647e+00
1.220954063372153175e+00 -3.863587319681725529e-01 -8.236043823168388567e-01 -3.863587319681725529e-01 -1.037945107593527005e+01 -1.737799947470018758e+00 -8.236043823168388567e-01 -1.737799947470018758e+00 -1.223743353984963100e+01
1.314725684408973194e+00 1.162383048860135881e+00 -1.870321784839259038e+00 1.162383048860135881e+00 -1.394398099947004077e+01 -2.142743438033392955e+00 -1.870321784839259038e+00 -2.142743438033392955e+00 -7.323542648508579944e+00
5.337117054028260199e+00 1.117337776194750054e+00 7.828336628167951172e-01 1.117337776194750054e+00 -1.253143284269514091e+01 -1.691792641754089610e+00 7.828336628167951172e-01 -1.691792641754089610e+00 7.275301840308015855e+00
7.085102622822969654e-01 9.228395762408629632e-02 1.748869936977389683e+00 9.228395762408629632e-02 -1.408056230091410299e+01 1.518326023177594963e-01 1.748869936977389683e+00 1.518326023177594963e-01 2.577961273463603042e+00
-1.271656813267822272e+01 -1.674439378496546338e+00 1.032719817352969249e+00 -1.674439378496546338e+00 -1.253216095005263320e+01 2.206885434184687078e+00 1.032719817352969249e+00 2.206885434184687078e+00 -1.530620192495799792e+01
-2.248490800346627694e+01 -1.655097849259057785e+00 1.257158571742066577e+00 -1.655097849259057785e+00 -6.454251514411782686e+00 1.158114533360500964e+00 1.257158571742066577e+00 1.158114533360500964e+00 -3.059231999228589416e+01
-2.553438051807800591e+01 1.017161750072605342e+00 1.024553585486050356e+00 1.017161750072605342e+00 -8.477687488058376075e-02 -1.950822110798132281e+00 1.024553585486050356e+00 -1.950822110798132281e+00 -3.907686195040098909e+01
-2.029831007157332223e+01 -4.191783486498636413e-01 4.840575579155577679e-01 -4.191783486498636413e-01 -5.055977398962088643e+00 -1.667723983732988247e+00 4.840575579155577679e-01 -1.667723983732988247e+00 -3.903837502433786000e+01
-1.034152900624861182e+01 -1.346832905096885025e+00 9.747911940431404354e-02 -1.346832905096885025e+00 -1.047183104759416139e+01 1.881742291626024577e-01 9.747911940431404354e-02 1.881742291626024577e-01 -3.284342082469814983e+01
-5.570222129521881449e+00 1.958973264650178292e+00 -3.081581993483677451e-01 1.958973264650178292e+00 -1.350652296640096495e+01 -1.054747114758387339e+00 -3.081581993483677451e-01 -1.054747114758387339e+00 -1.923412992807249111e+01
-8.612364442682430621e+00 2.673616954259682821e+00 -7.885315573318643079e-01 2.673616954259682821e+00 -7.489525989999115119e+00 -4.624879640260881608e-01 -7.885315573318643079e-01 -4.624879640260881608e-01 -6.095767976217056905e+00
-1.524787270854543308e+01 2.627283570317709427e-01 -3.063513633514381440e-01 2.627283570317709427e-01 9.523544460184638183e+00 -1.615980482493273973e+00 -3.063513633514381440e-01 -1.615980482493273973e+00 -4.177701310645658417e+00
-1.515705422730474794e+01 -1.575894315559006387e+00 1.087308167602657916e+00 -1.575894315559006387e+00 1.163869763168514915e+01 -2.227879573783028810e+00 1.087308167602657916e+00 -2.227879573783028810e+00 -7.100668286979394672e+00
-1.396345571816665299e+01 -2.775173147369786264e+00 3.699440059577889350e+00 -2.775173147369786264e+00 -7.667276161259549028e+00 -1.016978147863793147e+00 3.699440059577889350e+00 -1.016978147863793147e+00 -1.675684744150255057e+01
-2.464263697364002415e+00 -2.215293767840904149e+00 3.970948083519924232e+00 -2.215293767840904149e+00 -1.068538594582254930e+01 -1.600927382288090062e+00 3.970948083519924232e+00 -1.600927382288090062e+00 -1.605529404802655691e+01
6.837892172017702386e+00 -5.699173685630122277e-01 1.883858975617619613e+00 -5.699173685630122277e-01 -8.539903078656781332e+00 -2.754768613175398340e+00 1.883858975617619613e+00 -2.754768613175398340e+00 -7.272186966579298861e+00
7.962155808939977319e+00 1.812445719073604966e+00 9.098639626217014387e-01 1.812445719073604966e+00 -4.490429663038912445e+00 -2.445798467091718109e+00 9.098639626217014387e-01 -2.445798467091718109e+00 -6.790513511820980952e+00
1.576754835084015927e+00 3.377367577606551041e+00 2.089623094201563447e+00 3.377367577606551041e+00 -1.609141329818436494e+00 -1.162790491140402116e+00 2.089623094201563447e+00 -1.162790491140402116e+00 -1.327873022639962919e+01
-6.931635392098037807e-01 3.042356088035423678e+00 2.301806429295707446e+00 3.042356088035423678e+00 7.360695216190938917e-01 -2.879374410989314348e-01 2.301806429295707446e+00 -2.879374410989314348e-01 -1.656383573620524174e+01
1.014640161049398914e+00 1.070993823053300487e+00 1.446401937497210577e+00 1.070993823053300487e+00 4.593646777531911418e+00 5.296314730635804935e-01 1.446401937497210577e+00 5.296314730635804935e-01 -1.646641139017376787e+01
2.084710592234595428e+00 -7.500738534657783729e-01 -5.742535543479160981e-03 -7.500738534657783729e-01 6.977386753794625029e+00 5.619439145702889160e-01 -5.742535543479160981e-03 5.619439145702889160e-01 -1.374426820600227828e+01
4.807390756865268955e+00 -8.922178920274216329e-01 -4.949339102648436794e-01 -8.922178920274216329e-01 6.110975641551998905e+00 7.167387085009375713e-01 -4.949339102648436794e-01 7.167387085009375713e-01 -5.718577061858025168e+00
6.566866962647164740e+00 3.390690190922381886e-01 -7.505950591073715650e-01 3.390690190922381886e-01 6.112934652294883087e+00 4.597628931640798111e-01 -7.505950591073715650e-01 4.597628931640798111e-01 3.354731191740482732e+00
1.325185825831257169e+01 4.166117388737130001e-01 -6.519676538568669466e-01 4.166117388737130001e-01 1.260501063917408082e+01 4.872067899509281708e-02 -6.519676538568669466e-01 4.872067899509281708e-02 8.168299481257653483e+00
1.429772350114085810e+01 -4.650792176570164860e-01 -2.046962618895133423e-01 -4.650792176570164860e-01 1.490780423691983181e+01 -1.776681833557653134e-01 -2.046962618895133423e-01 -1.776681833557653134e-01 5.170639748946737058e+00
1.005675101580055220e+01 -1.144251978701444017e+00 2.619813171893158876e-01 -1.144251978701444017e+00 1.553185003046310264e+01 -2.686757039494747090e-01 2.619813171893158876e-01 -2.686757039494747090e-01 -2.887486815335717161e+00
7.300097222117993390e+00 -7.924967113954389797e-01 3.687941063859183632e-01 -7.924967113954389797e-01 1.271586269746905273e+01 -8.918344196279064384e-01 3.687941063859183632e-01 -8.918344196279064384e-01 -4.858536487313607211e+00
6.552597828587947149e+00 -7.402269931865369523e-01 1.870727416258864961e-01 -7.402269931865369523e-01 1.062683193972144657e+01 -1.656261213531784904e+00 1.870727416258864961e-01 -1.656261213531784904e+00 -8.783290593283857861e-01
6.533722221449853151e+00 -7.717938480551764791e-01 -9.322291181844017949e-01 -7.717938480551764791e-01 7.931827686549826950e+00 -1.692932535774829717e+00 -9.322291181844017949e-01 -1.692932535774829717e+00 -2.629429607712564287e+00
7.219912168665831409e+00 -9.245024538318030727e-01 -1.013425230504538810e+00 -9.245024538318030727e-01 5.993051112574323547e+00 -1.447220971280794188e+00 -1.013425230504538810e+00 -1.447220971280794188e+00 -5.611831444921242529e-01
3.717889001924667536e+00 -1.090235747636060903e+00 -1.899034729660509235e-01 -1.090235747636060903e+00 3.727450959009256160e+00 -1.365140205291941022e+00 -1.899034729660509235e-01 -1.365140205291941022e+00 4.637954159665723108e-01
2.046753781510595616e+00 -6.962297987123180487e-01 5.125889925063649155e-01 -6.962297987123180487e-01 1.579027189089769745e-01 -1.342777769477662586e+00 5.125889925063649155e-01 -1.342777769477662586e+00 3.504042074632900849e+00
-3.748306157221332202e-01 4.331195872669457020e-02 2.874783361212810973e-01 4.331195872669457020e-02 6.002013484877003480e-01 -8.152574428515486638e-01 2.874783361212810973e-01 -8.152574428515486638e-01 2.658042933637467353e+00
-4.683800066572351817e+00 -1.922512487800867587e-01 -5.396164554957100928e-02 -1.922512487800867587e-01 -1.221084284047124102e+00 -9.298202688201330501e-02 -5.396164554957100928e-02 -9.298202688201330501e-02 -9.501079718080374548e+00
-9.391607969156705593e+00 -3.454284072134737871e-01 -3.896984861902841879e-01 -3.454284072134737871e-01 -3.764984105808755199e+00 -8.589951188497396695e-02 -3.896984861902841879e-01 -8.589951188497396695e-02 -1.897174740694318729e+01
-9.862125540901692133e+00 -5.229292075818843255e-01 -8.288712725463597275e-01 -5.229292075818843255e-01 -4.168217790999685590e+00 -5.302444343865130721e-02 -8.288712725463597275e-01 -5.302444343865130721e-02 -2.176928108351361502e+01
-1.061229189032816933e+01 -9.444237081033990400e-01 -7.869201333637647622e-01 -9.444237081033990400e-01 -7.889733740792758354e+00 4.507075528834113554e-01 -7.869201333637647622e-01 4.507075528834113554e-01 -2.174542572595533230e+01
-1.247801741428899192e+01 -4.012453203964070902e-01 -2.129718436038259832e-01 -4.012453203964070902e-01 -1.095713069860935107e+01 9.284403960218907681e-01 -2.129718436038259832e-01 9.284403960218907681e-01 -2.239841816569683175e+01
-8.534595554474966761e+00 -3.812956409895216364e-02 6.745057915723938757e-01 -3.812956409895216364e-02 -5.407761553307997460e+00 1.091736273507025068e+00 6.745057915723938757e-01 1.091736273507025068e+00 -1.964696270055862115e+01
-8.094339861533386582e+00 -4.446555177472024667e-01 1.432879310482590318e+00 -4.446555177472024667e-01 2.815818751830390543e+00 1.131317388004155378e+00 1.432879310482590318e+00 1.131317388004155378e+00 -1.295843462229573007e+01
-1.892900138058506210e+00 -5.350898946239964760e-01 1.964785179191647968e+00 -5.350898946239964760e-01 3.524049901018474262e+00 4.516115893767597700e-01 1.964785179191647968e+00 4.516115893767597700e-01 -5.892919659321756320e+00
7.150512749888060959e+00 -5.377129165199335814e-01 1.741829452241069331e+00 -5.377129165199335814e-01 4.818203645154983117e-01 6.783223135112012026e-01 1.741829452241069331e+00 6.783223135112012026e-01 -3.184449883512844443e-02
1.080181619104903312e+01 4.032361674546525339e-03 2.438718191271609825e+00 4.032361674546525339e-03 -3.104889738242092356e+00 3.269343002602162485e-01 2.438718191271609825e+00 3.269343002602162485e-01 2.884950534486306672e+00
1.116573353179036410e+01 4.722521988448319386e-01 2.716351264013419975e+00 4.722521988448319386e-01 -5.436761465331024779e-01 -3.221957198545647438e-01 2.716351264013419975e+00 -3.221957198545647438e-01 -4.180163983743729439e+00
8.876133174188954200e+00 -4.620473159386550566e-01 1.957501901436973668e+00 -4.620473159386550566e-01 4.885631824218581443e+00 -1.546115920206486694e+00 1.957501901436973668e+00 -1.546115920206486694e+00 -6.098427580207077092e+00
7.976712218416299294e+00 -2.152579966610925766e+00 8.586844386014079733e-01 -2.152579966610925766e+00 3.268588739628671913e+00 -3.175259496506657619e+00 8.586844386014079733e-01 -3.175259496506657619e+00 -3.433735364140045210e+00
5.759096558767404339e+00 -1.352662119835706944e+00 -1.037596343140421151e+00 -1.352662119835706944e+00 -1.356776924687592256e+00 -4.439323779569945394e+00 -1.037596343140421151e+00 -4.439323779569945394e+00 -1.963004352877765202e+00
7.668884614688858958e-01 7.290129184830663744e-01 -3.566694912724287292e+00 7.290129184830663744e-01 -4.696143931882539729e-02 -4.276778865867294499e+00 -3.566694912724287292e+00 -4.276778865867294499e+00 -2.627003068745808467e-01
-2.696763363631092814e-01 1.229479527512955084e+00 -3.593809957820564449e+00 1.229479527512955084e+00 4.052782535595104818e+00 -2.936722390316813147e+00 -3.593809957820564449e+00 -2.936722390316813147e+00 -2.940030796552324688e+00
-1.232540426654104015e+00 1.093590114148123238e+00 -1.989747866075623595e+00 1.093590114148123238e+00 6.549129934434903433e+00 -1.563317643423729697e+00 -1.989747866075623595e+00 -1.563317643423729697e+00 -8.427053739182076342e+00
4.724151046540483456e+00 8.543663296739848478e-01 -3.104399910578727440e+00 8.543663296739848478e-01 -1.364894180863581052e+00 -4.253273941690864923e-01 -3.104399910578727440e+00 -4.253273941690864923e-01 -1.535786416270878973e+01
8.809809197433493111e+00 1.100371537191019877e+00 -4.489534168131985581e+00 1.100371537191019877e+00 -8.930672302799077755e+00 1.060668073829103220e+00 -4.489534168131985581e+00 1.060668073829103220e+00 -1.886950295049604875e+01
1.032647591102819007e+01 1.498988074793583536e+00 -3.205652895092191645e+00 1.498988074793583536e+00 -1.057568874933078718e+01 1.787243902298190523e+00 -3.205652895092191645e+00 1.787243902298190523e+00 -2.011120611892867416e+01
-1.542128499610762038e+00 1.049144786063909374e+00 -2.036510956229502955e+00 1.049144786063909374e+00 -8.730999688377751866e+00 2.561057103055825124e+00 -2.036510956229502955e+00 2.561057103055825124e+00 -1.986495118139365346e+01