7.934632799820209748e+00 0.000000000000000000e+00 0.000000000000000000e+00 0.000000000000000000e+00 7.934632799820209748e+00 0.000000000000000000e+00 0.000000000000000000e+00 0.000000000000000000e+00 8.144660491653569423e+00
7.933215773431040674e+00 0.000000000000000000e+00 0.000000000000000000e+00 0.000000000000000000e+00 7.933215773431040674e+00 0.000000000000000000e+00 0.000000000000000000e+00 0.000000000000000000e+00 8.143205956940308354e+00
7.930352714451670337e+00 0.000000000000000000e+00 0.000000000000000000e+00 0.000000000000000000e+00 7.930352714451670337e+00 0.000000000000000000e+00 0.000000000000000000e+00 0.000000000000000000e+00 8.140267113525176512e+00
7.926939296602331098e+00 0.000000000000000000e+00 0.000000000000000000e+00 0.000000000000000000e+00 7.926939296602331098e+00 0.000000000000000000e+00 0.000000000000000000e+00 0.000000000000000000e+00 8.136763343382932945e+00
7.924882175534738948e+00 0.000000000000000000e+00 0.000000000000000000e+00 0.000000000000000000e+00 7.924882175534738948e+00 0.000000000000000000e+00 0.000000000000000000e+00 0.000000000000000000e+00 8.134651770848778440e+00
7.927354610219660813e+00 0.000000000000000000e+00 0.000000000000000000e+00 0.000000000000000000e+00 7.927354610219660813e+00 0.000000000000000000e+00 0.000000000000000000e+00 0.000000000000000000e+00 8.137189650244980754e+00
7.935837829949694111e+00 0.000000000000000000e+00 0.000000000000000000e+00 0.000000000000000000e+00 7.935837829949694111e+00 0.000000000000000000e+00 0.000000000000000000e+00 0.000000000000000000e+00 8.145897418621444785e+00
7.947408891360179695e+00 0.000000000000000000e+00 0.000000000000000000e+00 0.000000000000000000e+00 7.947408891360179695e+00 0.000000000000000000e+00 0.000000000000000000e+00 0.000000000000000000e+00 8.157774763054874256e+00
7.956962342804636101e+00 0.000000000000000000e+00 0.000000000000000000e+00 0.000000000000000000e+00 7.956962342804636101e+00 0.000000000000000000e+00 0.000000000000000000e+00 0.000000000000000000e+00 8.167581091904692059e+00
7.961381035004313489e+00 0.000000000000000000e+00 0.000000000000000000e+00 0.000000000000000000e+00 7.961381035004313489e+00 0.000000000000000000e+00 0.000000000000000000e+00 0.000000000000000000e+00 8.172116745751102584e+00
7.960110621480196436e+00 0.000000000000000000e+00 0.000000000000000000e+00 0.000000000000000000e+00 7.960110621480196436e+00 0.000000000000000000e+00 0.000000000000000000e+00 0.000000000000000000e+00 8.170812704708554364e+00
7.954352574897245454e+00 0.000000000000000000e+00 0.000000000000000000e+00 0.000000000000000000e+00 7.954352574897245454e+00 0.000000000000000000e+00 0.000000000000000000e+00 0.000000000000000000e+00 8.164902244110946228e+00
7.946551375938295969e+00 0.000000000000000000e+00 0.000000000000000000e+00 0.000000000000000000e+00 7.946551375938295969e+00 0.000000000000000000e+00 0.000000000000000000e+00 0.000000000000000000e+00 8.156894549419648754e+00
7.939146421402444531e+00 0.000000000000000000e+00 0.000000000000000000e+00 0.000000000000000000e+00 7.939146421402444531e+00 0.000000000000000000e+00 0.000000000000000000e+00 0.000000000000000000e+00 8.149293587639073522e+00
7.932715324731773876e+00 0.000000000000000000e+00 0.000000000000000000e+00 0.000000000000000000e+00 7.932715324731773876e+00 0.000000000000000000e+00 0.000000000000000000e+00 0.000000000000000000e+00 8.142692261492292971e+00
7.926947710183900320e+00 0.000000000000000000e+00 0.000000000000000000e+00 0.000000000000000000e+00 7.926947710183900320e+00 0.000000000000000000e+00 0.000000000000000000e+00 0.000000000000000000e+00 8.136771979669219945e+00
7.923827064426276934e+00 0.000000000000000000e+00 0.000000000000000000e+00 0.000000000000000000e+00 7.923827064426276934e+00 0.000000000000000000e+00 0.000000000000000000e+00 0.000000000000000000e+00 8.133568731220082171e+00
7.926019420355415512e+00 0.000000000000000000e+00 0.000000000000000000e+00 0.000000000000000000e+00 7.926019420355415512e+00 0.000000000000000000e+00 0.000000000000000000e+00 0.000000000000000000e+00 8.135819118247177073e+00
7.934333308898169790e+00 0.000000000000000000e+00 0.000000000000000000e+00 0.000000000000000000e+00 7.934333308898169790e+00 0.000000000000000000e+00 0.000000000000000000e+00 0.000000000000000000e+00 8.144353073284161582e+00
7.948071978536249915e+00 0.000000000000000000e+00 0.000000000000000000e+00 0.000000000000000000e+00 7.948071978536249915e+00 0.000000000000000000e+00 0.000000000000000000e+00 0.000000000000000000e+00 8.158455401977912302e+00
7.965187661577224354e+00 0.000000000000000000e+00 0.000000000000000000e+00 0.000000000000000000e+00 7.965187661577224354e+00 0.000000000000000000e+00 0.000000000000000000e+00 0.000000000000000000e+00 8.176024132752004903e+00
7.981131242777170343e+00 0.000000000000000000e+00 0.000000000000000000e+00 0.000000000000000000e+00 7.981131242777170343e+00 0.000000000000000000e+00 0.000000000000000000e+00 0.000000000000000000e+00 8.192389736450662596e+00
7.992777850091790981e+00 0.000000000000000000e+00 0.000000000000000000e+00 0.000000000000000000e+00 7.992777850091790981e+00 0.000000000000000000e+00 0.000000000000000000e+00 0.000000000000000000e+00 8.204344626468715873e+00
8.001387623507342894e+00 0.000000000000000000e+00 0.000000000000000000e+00 0.000000000000000000e+00 8.001387623507342894e+00 0.000000000000000000e+00 0.000000000000000000e+00 0.000000000000000000e+00 8.213182298374414714e+00
8.009400646337970997e+00 0.000000000000000000e+00 0.000000000000000000e+00 0.000000000000000000e+00 8.009400646337970997e+00 0.000000000000000000e+00 0.000000000000000000e+00 0.000000000000000000e+00 8.221407423861114339e+00
8.014359498062326281e+00 0.000000000000000000e+00 0.000000000000000000e+00 0.000000000000000000e+00 8.014359498062326281e+00 0.000000000000000000e+00 0.000000000000000000e+00 0.000000000000000000e+00 8.226497535116903848e+00
8.011485460340152187e+00 0.000000000000000000e+00 0.000000000000000000e+00 0.000000000000000000e+00 8.011485460340152187e+00 0.000000000000000000e+00 0.000000000000000000e+00 0.000000000000000000e+00 8.223547422354640091e+00
7.999300400048029225e+00 0.000000000000000000e+00 0.000000000000000000e+00 0.000000000000000000e+00 7.999300400048029225e+00 0.000000000000000000e+00 0.000000000000000000e+00 0.000000000000000000e+00 8.211039826646127082e+00
7.980663338964564701e+00 0.000000000000000000e+00 0.000000000000000000e+00 0.000000000000000000e+00 7.980663338964564701e+00 0.000000000000000000e+00 0.000000000000000000e+00 0.000000000000000000e+00 8.191909447344350781e+00
7.960151265390237540e+00 0.000000000000000000e+00 0.000000000000000000e+00 0.000000000000000000e+00 7.960151265390237540e+00 0.000000000000000000e+00 0.000000000000000000e+00 0.000000000000000000e+00 8.170854424451404086e+00
7.942783875050166031e+00 0.000000000000000000e+00 0.000000000000000000e+00 0.000000000000000000e+00 7.942783875050166031e+00 0.000000000000000000e+00 0.000000000000000000e+00 0.000000000000000000e+00 8.153027323751562250e+00
7.932315089532647967e+00 0.000000000000000000e+00 0.000000000000000000e+00 0.000000000000000000e+00 7.932315089532647967e+00 0.000000000000000000e+00 0.000000000000000000e+00 0.000000000000000000e+00 8.142281432170152655e+00
7.929676230118717584e+00 0.000000000000000000e+00 0.000000000000000000e+00 0.000000000000000000e+00 7.929676230118717584e+00 0.000000000000000000e+00 0.000000000000000000e+00 0.000000000000000000e+00 8.139572722825297646e+00
7.933208002975769446e+00 0.000000000000000000e+00 0.000000000000000000e+00 0.000000000000000000e+00 7.933208002975769446e+00 0.000000000000000000e+00 0.000000000000000000e+00 0.000000000000000000e+00 8.143197980802220570e+00
7.939882471266519914e+00 0.000000000000000000e+00 0.000000000000000000e+00 0.000000000000000000e+00 7.939882471266519914e+00 0.000000000000000000e+00 0.000000000000000000e+00 0.000000000000000000e+00 8.150049120554998083e+00
7.947039750906062849e+00 0.000000000000000000e+00 0.000000000000000000e+00 0.000000000000000000e+00 7.947039750906062849e+00 0.000000000000000000e+00 0.000000000000000000e+00 0.000000000000000000e+00 8.157395851548002952e+00
7.953886854882070701e+00 0.000000000000000000e+00 0.000000000000000000e+00 0.000000000000000000e+00 7.953886854882070701e+00 0.000000000000000000e+00 0.000000000000000000e+00 0.000000000000000000e+00 8.164424196606731243e+00
7.959995901976555821e+00 0.000000000000000000e+00 0.000000000000000000e+00 0.000000000000000000e+00 7.959995901976555821e+00 0.000000000000000000e+00 0.000000000000000000e+00 0.000000000000000000e+00 8.170694948608394625e+00
7.964638707237170934e+00 0.000000000000000000e+00 0.000000000000000000e+00 0.000000000000000000e+00 7.964638707237170934e+00 0.000000000000000000e+00 0.000000000000000000e+00 0.000000000000000000e+00 8.175460647731595643e+00
7.966297610589023748e+00 0.000000000000000000e+00 0.000000000000000000e+00 0.000000000000000000e+00 7.966297610589023748e+00 0.000000000000000000e+00 0.000000000000000000e+00 0.000000000000000000e+00 8.177163461829685787e+00
7.964127233431368857e+00 0.000000000000000000e+00 0.000000000000000000e+00 0.000000000000000000e+00 7.964127233431368857e+00 0.000000000000000000e+00 0.000000000000000000e+00 0.000000000000000000e+00 8.174935635345725871e+00
7.959286801253353083e+00 0.000000000000000000e+00 0.000000000000000000e+00 0.000000000000000000e+00 7.959286801253353083e+00 0.000000000000000000e+00 0.000000000000000000e+00 0.000000000000000000e+00 8.169967078172236441e+00
7.954410182944637420e+00 0.000000000000000000e+00 0.000000000000000000e+00 0.000000000000000000e+00 7.954410182944637420e+00 0.000000000000000000e+00 0.000000000000000000e+00 0.000000000000000000e+00 8.164961377029559486e+00
7.950816064886462975e+00 0.000000000000000000e+00 0.000000000000000000e+00 0.000000000000000000e+00 7.950816064886462975e+00 0.000000000000000000e+00 0.000000000000000000e+00 0.000000000000000000e+00 8.161272123589013106e+00
7.947478147353520761e+00 0.000000000000000000e+00 0.000000000000000000e+00 0.000000000000000000e+00 7.947478147353520761e+00 0.000000000000000000e+00 0.000000000000000000e+00 0.000000000000000000e+00 8.157845852236661699e+00
7.943293566074231649e+00 0.000000000000000000e+00 0.000000000000000000e+00 0.000000000000000000e+00 7.943293566074231649e+00 0.000000000000000000e+00 0.000000000000000000e+00 0.000000000000000000e+00 8.153550506165968770e+00
7.937920765284689928e+00 0.000000000000000000e+00 0.000000000000000000e+00 0.000000000000000000e+00 7.937920765284689928e+00 0.000000000000000000e+00 0.000000000000000000e+00 0.000000000000000000e+00 8.148035488719068908e+00
7.932187490205148350e+00 0.000000000000000000e+00 0.000000000000000000e+00 0.000000000000000000e+00 7.932187490205148350e+00 0.000000000000000000e+00 0.000000000000000000e+00 0.000000000000000000e+00 8.142150455321093716e+00
7.926942169461793419e+00 0.000000000000000000e+00 0.000000000000000000e+00 0.000000000000000000e+00 7.926942169461793419e+00 0.000000000000000000e+00 0.000000000000000000e+00 0.000000000000000000e+00 8.136766292285958713e+00
7.923049570658765361e+00 0.000000000000000000e+00 0.000000000000000000e+00 0.000000000000000000e+00 7.923049570658765361e+00 0.000000000000000000e+00 0.000000000000000000e+00 0.000000000000000000e+00 8.132770657392034863e+00
7.921296516086875350e+00 0.000000000000000000e+00 0.000000000000000000e+00 0.000000000000000000e+00 7.921296516086875350e+00 0.000000000000000000e+00 0.000000000000000000e+00 0.000000000000000000e+00 8.130971199916254832e+00
7.921769494887266561e+00 0.000000000000000000e+00 0.000000000000000000e+00 0.000000000000000000e+00 7.921769494887266561e+00 0.000000000000000000e+00 0.000000000000000000e+00 0.000000000000000000e+00 8.131456698343578537e+00
7.924357915751537362e+00 0.000000000000000000e+00 0.000000000000000000e+00 0.000000000000000000e+00 7.924357915751537362e+00 0.000000000000000000e+00 0.000000000000000000e+00 0.000000000000000000e+00 8.134113634043456997e+00
7.929850097633884154e+00 0.000000000000000000e+00 0.000000000000000000e+00 0.000000000000000000e+00 7.929850097633884154e+00 0.000000000000000000e+00 0.000000000000000000e+00 0.000000000000000000e+00 8.139751192569972815e+00
7.938940874230635991e+00 0.000000000000000000e+00 0.000000000000000000e+00 0.000000000000000000e+00 7.938940874230635991e+00 0.000000000000000000e+00 0.000000000000000000e+00 0.000000000000000000e+00 8.149082599686582995e+00
7.949668188069987096e+00 0.000000000000000000e+00 0.000000000000000000e+00 0.000000000000000000e+00 7.949668188069987096e+00 0.000000000000000000e+00 0.000000000000000000e+00 0.000000000000000000e+00 8.160093862768437845e+00
7.958550833518804879e+00 0.000000000000000000e+00 0.000000000000000000e+00 0.000000000000000000e+00 7.958550833518804879e+00 0.000000000000000000e+00 0.000000000000000000e+00 0.000000000000000000e+00 8.169211629559825383e+00
7.962585348288922837e+00 0.000000000000000000e+00 0.000000000000000000e+00 0.000000000000000000e+00 7.962585348288922837e+00 0.000000000000000000e+00 0.000000000000000000e+00 0.000000000000000000e+00 8.173352936899213717e+00
7.960745597963080122e+00 0.000000000000000000e+00 0.000000000000000000e+00 0.000000000000000000e+00 7.960745597963080122e+00 0.000000000000000000e+00 0.000000000000000000e+00 0.000000000000000000e+00 8.171464488854690345e+00
7.954631620627974797e+00 0.000000000000000000e+00 0.000000000000000000e+00 0.000000000000000000e+00 7.954631620627974797e+00 0.000000000000000000e+00 0.000000000000000000e+00 0.000000000000000000e+00 8.165188676111156951e+00
7.947077938916241813e+00 0.000000000000000000e+00 0.000000000000000000e+00 0.000000000000000000e+00 7.947077938916241813e+00 0.000000000000000000e+00 0.000000000000000000e+00 0.000000000000000000e+00 8.157435050384362896e+00
7.940302929831234202e+00 0.000000000000000000e+00 0.000000000000000000e+00 0.000000000000000000e+00 7.940302929831234202e+00 0.000000000000000000e+00 0.000000000000000000e+00 0.000000000000000000e+00 8.150480708549647346e+00
7.935063334215923803e+00 0.000000000000000000e+00 0.000000000000000000e+00 0.000000000000000000e+00 7.935063334215923803e+00 0.000000000000000000e+00 0.000000000000000000e+00 0.000000000000000000e+00 8.145102422183683188e+00
7.931401023478287016e+00 0.000000000000000000e+00 0.000000000000000000e+00 0.000000000000000000e+00 7.931401023478287016e+00 0.000000000000000000e+00 0.000000000000000000e+00 0.000000000000000000e+00 8.141343171023065040e+00
7.930199418475087469e+00 0.000000000000000000e+00 0.000000000000000000e+00 0.000000000000000000e+00 7.930199418475087469e+00 0.000000000000000000e+00 0.000000000000000000e+00 0.000000000000000000e+00 8.140109759843950243e+00
7.933404285930905075e+00 0.000000000000000000e+00 0.000000000000000000e+00 0.000000000000000000e+00 7.933404285930905075e+00 0.000000000000000000e+00 0.000000000000000000e+00 0.000000000000000000e+00 8.143399459317450351e+00
7.942122525683092960e+00 0.000000000000000000e+00 0.000000000000000000e+00 0.000000000000000000e+00 7.942122525683092960e+00 0.000000000000000000e+00 0.000000000000000000e+00 0.000000000000000000e+00 8.152348468636258616e+00
7.954548326341441822e+00 0.000000000000000000e+00 0.000000000000000000e+00 0.000000000000000000e+00 7.954548326341441822e+00 0.000000000000000000e+00 0.000000000000000000e+00 0.000000000000000000e+00 8.165103177045315519e+00
7.967284921436765366e+00 0.000000000000000000e+00 0.000000000000000000e+00 0.000000000000000000e+00 7.967284921436765366e+00 0.000000000000000000e+00 0.000000000000000000e+00 0.000000000000000000e+00 8.178176906540992164e+00
7.977401928938223641e+00 0.000000000000000000e+00 0.000000000000000000e+00 0.000000000000000000e+00 7.977401928938223641e+00 0.000000000000000000e+00 0.000000000000000000e+00 0.000000000000000000e+00 8.188561708631944214e+00
7.985030377782575073e+00 0.000000000000000000e+00 0.000000000000000000e+00 0.000000000000000000e+00 7.985030377782575073e+00 0.000000000000000000e+00 0.000000000000000000e+00 0.000000000000000000e+00 8.196392080557965087e+00
7.992061960122669007e+00 0.000000000000000000e+00 0.000000000000000000e+00 0.000000000000000000e+00 7.992061960122669007e+00 0.000000000000000000e+00 0.000000000000000000e+00 0.000000000000000000e+00 8.203609787075672344e+00
7.996774405793412477e+00 0.000000000000000000e+00 0.000000000000000000e+00 0.000000000000000000e+00 7.996774405793412477e+00 0.000000000000000000e+00 0.000000000000000000e+00 0.000000000000000000e+00 8.208446969972392537e+00
7.995926066626708462e+00 0.000000000000000000e+00 0.000000000000000000e+00 0.000000000000000000e+00 7.995926066626708462e+00 0.000000000000000000e+00 0.000000000000000000e+00 0.000000000000000000e+00 8.207576175485947090e+00
7.988941114443196767e+00 0.000000000000000000e+00 0.000000000000000000e+00 0.000000000000000000e+00 7.988941114443196767e+00 0.000000000000000000e+00 0.000000000000000000e+00 0.000000000000000000e+00 8.200406333413717164e+00
7.980138077467128888e+00 0.000000000000000000e+00 0.000000000000000000e+00 0.000000000000000000e+00 7.980138077467128888e+00 0.000000000000000000e+00 0.000000000000000000e+00 0.000000000000000000e+00 8.191370282309948792e+00
7.976002353909598774e+00 0.000000000000000000e+00 0.000000000000000000e+00 0.000000000000000000e+00 7.976002353909598774e+00 0.000000000000000000e+00 0.000000000000000000e+00 0.000000000000000000e+00 8.187125087212569596e+00
7.979343431626348959e+00 0.000000000000000000e+00 0.000000000000000000e+00 0.000000000000000000e+00 7.979343431626348959e+00 0.000000000000000000e+00 0.000000000000000000e+00 0.000000000000000000e+00 8.190554602398247397e+00
7.986085963926302433e+00 0.000000000000000000e+00 0.000000000000000000e+00 0.000000000000000000e+00 7.986085963926302433e+00 0.000000000000000000e+00 0.000000000000000000e+00 0.000000000000000000e+00 8.197475607794856955e+00
7.989325032186250120e+00 0.000000000000000000e+00 0.000000000000000000e+00 0.000000000000000000e+00 7.989325032186250120e+00 0.000000000000000000e+00 0.000000000000000000e+00 0.000000000000000000e+00 8.200800413360274987e+00
7.987273621753786301e+00 0.000000000000000000e+00 0.000000000000000000e+00 0.000000000000000000e+00 7.987273621753786301e+00 0.000000000000000000e+00 0.000000000000000000e+00 0.000000000000000000e+00 8.198694702621377672e+00
7.982300830235671718e+00 0.000000000000000000e+00 0.000000000000000000e+00 0.000000000000000000e+00 7.982300830235671718e+00 0.000000000000000000e+00 0.000000000000000000e+00 0.000000000000000000e+00 8.193590282587958740e+00
7.976988062954560199e+00 0.000000000000000000e+00 0.000000000000000000e+00 0.000000000000000000e+00 7.976988062954560199e+00 0.000000000000000000e+00 0.000000000000000000e+00 0.000000000000000000e+00 8.188136887722340163e+00
7.971431153488804711e+00 0.000000000000000000e+00 0.000000000000000000e+00 0.000000000000000000e+00 7.971431153488804711e+00 0.000000000000000000e+00 0.000000000000000000e+00 0.000000000000000000e+00 8.182432888291280904e+00
7.964759792947164740e+00 0.000000000000000000e+00 0.000000000000000000e+00 0.000000000000000000e+00 7.964759792947164740e+00 0.000000000000000000e+00 0.000000000000000000e+00 0.000000000000000000e+00 8.175584938549139480e+00
7.956936100884692387e+00 0.000000000000000000e+00 0.000000000000000000e+00 0.000000000000000000e+00 7.956936100884692387e+00 0.000000000000000000e+00 0.000000000000000000e+00 0.000000000000000000e+00 8.167554155368746294e+00
7.949849569621900258e+00 0.000000000000000000e+00 0.000000000000000000e+00 0.000000000000000000e+00 7.949849569621900258e+00 0.000000000000000000e+00 0.000000000000000000e+00 0.000000000000000000e+00 8.160280045443712993e+00
7.946606179754829746e+00 0.000000000000000000e+00 0.000000000000000000e+00 0.000000000000000000e+00 7.946606179754829746e+00 0.000000000000000000e+00 0.000000000000000000e+00 0.000000000000000000e+00 8.156950803878830314e+00
7.948421433406682723e+00 0.000000000000000000e+00 0.000000000000000000e+00 0.000000000000000000e+00 7.948421433406682723e+00 0.000000000000000000e+00 0.000000000000000000e+00 0.000000000000000000e+00 8.158814106829098023e+00
7.953394202495926102e+00 0.000000000000000000e+00 0.000000000000000000e+00 0.000000000000000000e+00 7.953394202495926102e+00 0.000000000000000000e+00 0.000000000000000000e+00 0.000000000000000000e+00 8.163918503838651475e+00
7.959050955762950963e+00 0.000000000000000000e+00 0.000000000000000000e+00 0.000000000000000000e+00 7.959050955762950963e+00 0.000000000000000000e+00 0.000000000000000000e+00 0.000000000000000000e+00 8.169724989911768986e+00
7.964159446282941701e+00 0.000000000000000000e+00 0.000000000000000000e+00 0.000000000000000000e+00 7.964159446282941701e+00 0.000000000000000000e+00 0.000000000000000000e+00 0.000000000000000000e+00 8.174968700863388449e+00
7.967474452791766026e+00 0.000000000000000000e+00 0.000000000000000000e+00 0.000000000000000000e+00 7.967474452791766026e+00 0.000000000000000000e+00 0.000000000000000000e+00 0.000000000000000000e+00 8.178371454742112689e+00
7.967547145492324567e+00 0.000000000000000000e+00 0.000000000000000000e+00 0.000000000000000000e+00 7.967547145492324567e+00 0.000000000000000000e+00 0.000000000000000000e+00 0.000000000000000000e+00 8.178446071600596667e+00
7.963531913505208948e+00 0.000000000000000000e+00 0.000000000000000000e+00 0.000000000000000000e+00 7.963531913505208948e+00 0.000000000000000000e+00 0.000000000000000000e+00 0.000000000000000000e+00 8.174324557454273332e+00
7.955906677563363338e+00 0.000000000000000000e+00 0.000000000000000000e+00 0.000000000000000000e+00 7.955906677563363338e+00 0.000000000000000000e+00 0.000000000000000000e+00 0.000000000000000000e+00 8.166497483476268471e+00
7.946608541825232130e+00 0.000000000000000000e+00 0.000000000000000000e+00 0.000000000000000000e+00 7.946608541825232130e+00 0.000000000000000000e+00 0.000000000000000000e+00 0.000000000000000000e+00 8.156953228472874073e+00
7.937638234117025071e+00 0.000000000000000000e+00 0.000000000000000000e+00 0.000000000000000000e+00 7.937638234117025071e+00 0.000000000000000000e+00 0.000000000000000000e+00 0.000000000000000000e+00 8.147745479024452564e+00
7.930294725508471920e+00 0.000000000000000000e+00 0.000000000000000000e+00 0.000000000000000000e+00 7.930294725508471920e+00 0.000000000000000000e+00 0.000000000000000000e+00 0.000000000000000000e+00 8.140207589629813612e+00
7.924994374407888564e+00 0.000000000000000000e+00 0.000000000000000000e+00 0.000000000000000000e+00 7.924994374407888564e+00 0.000000000000000000e+00 0.000000000000000000e+00 0.000000000000000000e+00 8.134766939596833168e+00
7.921805153264006805e+00 0.000000000000000000e+00 0.000000000000000000e+00 0.000000000000000000e+00 7.921805153264006805e+00 0.000000000000000000e+00 0.000000000000000000e+00 0.000000000000000000e+00 8.131493300588886086e+00
7.920985489952235170e+00 0.000000000000000000e+00 0.000000000000000000e+00 0.000000000000000000e+00 7.920985489952235170e+00 0.000000000000000000e+00 0.000000000000000000e+00 0.000000000000000000e+00 8.130651941000005323e+00
7.922771641599608117e+00 0.000000000000000000e+00 0.000000000000000000e+00 0.000000000000000000e+00 7.922771641599608117e+00 0.000000000000000000e+00 0.000000000000000000e+00 0.000000000000000000e+00 8.132485371622227177e+00
7.926453355750552987e+00 0.000000000000000000e+00 0.000000000000000000e+00 0.000000000000000000e+00 7.926453355750552987e+00 0.000000000000000000e+00 0.000000000000000000e+00 0.000000000000000000e+00 8.136264539801196349e+00
7.930596543399117238e+00 0.000000000000000000e+00 0.000000000000000000e+00 0.000000000000000000e+00 7.930596543399117238e+00 0.000000000000000000e+00 0.000000000000000000e+00 0.000000000000000000e+00 8.140517396562472641e+00
7.934415946052485680e+00 0.000000000000000000e+00 0.000000000000000000e+00 0.000000000000000000e+00 7.934415946052485680e+00 0.000000000000000000e+00 0.000000000000000000e+00 0.000000000000000000e+00 8.144437897822886185e+00
7.938568254287549308e+00 0.000000000000000000e+00 0.000000000000000000e+00 0.000000000000000000e+00 7.938568254287549308e+00 0.000000000000000000e+00 0.000000000000000000e+00 0.000000000000000000e+00 8.148700116590271492e+00
7.944114290036896620e+00 0.000000000000000000e+00 0.000000000000000000e+00 0.000000000000000000e+00 7.944114290036896620e+00 0.000000000000000000e+00 0.000000000000000000e+00 0.000000000000000000e+00 8.154392954481581413e+00
7.951140531265736833e+00 0.000000000000000000e+00 0.000000000000000000e+00 0.000000000000000000e+00 7.951140531265736833e+00 0.000000000000000000e+00 0.000000000000000000e+00 0.000000000000000000e+00 8.161605178509848457e+00
7.958190190378775952e+00 0.000000000000000000e+00 0.000000000000000000e+00 0.000000000000000000e+00 7.958190190378775952e+00 0.000000000000000000e+00 0.000000000000000000e+00 0.000000000000000000e+00 8.168841440288746369e+00
7.962279979964715260e+00 0.000000000000000000e+00 0.000000000000000000e+00 0.000000000000000000e+00 7.962279979964715260e+00 0.000000000000000000e+00 0.000000000000000000e+00 0.000000000000000000e+00 8.173039485554534522e+00
7.961376292394613863e+00 0.000000000000000000e+00 0.000000000000000000e+00 0.000000000000000000e+00 7.961376292394613863e+00 0.000000000000000000e+00 0.000000000000000000e+00 0.000000000000000000e+00 8.172111877606123898e+00
7.955567880111583001e+00 0.000000000000000000e+00 0.000000000000000000e+00 0.000000000000000000e+00 7.955567880111583001e+00 0.000000000000000000e+00 0.000000000000000000e+00 0.000000000000000000e+00 8.166149718142110103e+00
7.946384767087347534e+00 0.000000000000000000e+00 0.000000000000000000e+00 0.000000000000000000e+00 7.946384767087347534e+00 0.000000000000000000e+00 0.000000000000000000e+00 0.000000000000000000e+00 8.156723530475085582e+00
7.935544367732950910e+00 0.000000000000000000e+00 0.000000000000000000e+00 0.000000000000000000e+00 7.935544367732950910e+00 0.000000000000000000e+00 0.000000000000000000e+00 0.000000000000000000e+00 8.145596188535416005e+00
7.924875997375303349e+00 0.000000000000000000e+00 0.000000000000000000e+00 0.000000000000000000e+00 7.924875997375303349e+00 0.000000000000000000e+00 0.000000000000000000e+00 0.000000000000000000e+00 8.134645429155284546e+00
7.916987022099620575e+00 0.000000000000000000e+00 0.000000000000000000e+00 0.000000000000000000e+00 7.916987022099620575e+00 0.000000000000000000e+00 0.000000000000000000e+00 0.000000000000000000e+00 8.126547634729627489e+00
7.915923811492780793e+00 0.000000000000000000e+00 0.000000000000000000e+00 0.000000000000000000e+00 7.915923811492780793e+00 0.000000000000000000e+00 0.000000000000000000e+00 0.000000000000000000e+00 8.125456281211787868e+00
7.923441347254580158e+00 0.000000000000000000e+00 0.000000000000000000e+00 0.000000000000000000e+00 7.923441347254580158e+00 0.000000000000000000e+00 0.000000000000000000e+00 0.000000000000000000e+00 8.133172804214158447e+00
7.936349018356139595e+00 0.000000000000000000e+00 0.000000000000000000e+00 0.000000000000000000e+00 7.936349018356139595e+00 0.000000000000000000e+00 0.000000000000000000e+00 0.000000000000000000e+00 8.146422138054001394e+00
7.950333364362032640e+00 0.000000000000000000e+00 0.000000000000000000e+00 0.000000000000000000e+00 7.950333364362032640e+00 0.000000000000000000e+00 0.000000000000000000e+00 0.000000000000000000e+00 8.160776646106130627e+00
7.962543254412228322e+00 0.000000000000000000e+00 0.000000000000000000e+00 0.000000000000000000e+00 7.962543254412228322e+00 0.000000000000000000e+00 0.000000000000000000e+00 0.000000000000000000e+00 8.173309728808932917e+00
7.971730797791961365e+00 0.000000000000000000e+00 0.000000000000000000e+00 0.000000000000000000e+00 7.971730797791961365e+00 0.000000000000000000e+00 0.000000000000000000e+00 0.000000000000000000e+00 8.182740464101780020e+00
7.977659597532005264e+00 0.000000000000000000e+00 0.000000000000000000e+00 0.000000000000000000e+00 7.977659597532005264e+00 0.000000000000000000e+00 0.000000000000000000e+00 0.000000000000000000e+00 8.188826197647465222e+00
7.981015099460726070e+00 0.000000000000000000e+00 0.000000000000000000e+00 0.000000000000000000e+00 7.981015099460726070e+00 0.000000000000000000e+00 0.000000000000000000e+00 0.000000000000000000e+00 8.192270518850916616e+00
7.983379174319399141e+00 0.000000000000000000e+00 0.000000000000000000e+00 0.000000000000000000e+00 7.983379174319399141e+00 0.000000000000000000e+00 0.000000000000000000e+00 0.000000000000000000e+00 8.194697170163379951e+00
7.985721170097166421e+00 0.000000000000000000e+00 0.000000000000000000e+00 0.000000000000000000e+00 7.985721170097166421e+00 0.000000000000000000e+00 0.000000000000000000e+00 0.000000000000000000e+00 8.197101157967301432e+00
7.987905828556614019e+00 0.000000000000000000e+00 0.000000000000000000e+00 0.000000000000000000e+00 7.987905828556614019e+00 0.000000000000000000e+00 0.000000000000000000e+00 0.000000000000000000e+00 8.199343643774877677e+00
7.988093956026695253e+00 0.000000000000000000e+00 0.000000000000000000e+00 0.000000000000000000e+00 7.988093956026695253e+00 0.000000000000000000e+00 0.000000000000000000e+00 0.000000000000000000e+00 8.199536750931295970e+00
7.984051679855254768e+00 0.000000000000000000e+00 0.000000000000000000e+00 0.000000000000000000e+00 7.984051679855254768e+00 0.000000000000000000e+00 0.000000000000000000e+00 0.000000000000000000e+00 8.195387476747766797e+00
7.975733686187131077e+00 0.000000000000000000e+00 0.000000000000000000e+00 0.000000000000000000e+00 7.975733686187131077e+00 0.000000000000000000e+00 0.000000000000000000e+00 0.000000000000000000e+00 8.186849307924038754e+00
7.964915780322254335e+00 0.000000000000000000e+00 0.000000000000000000e+00 0.000000000000000000e+00 7.964915780322254335e+00 0.000000000000000000e+00 0.000000000000000000e+00 0.000000000000000000e+00 8.175745054870462880e+00
7.955143753922981453e+00 0.000000000000000000e+00 0.000000000000000000e+00 0.000000000000000000e+00 7.955143753922981453e+00 0.000000000000000000e+00 0.000000000000000000e+00 0.000000000000000000e+00 8.165714365443131229e+00