1.635184085999999903e-03 7.933937982116000320e+00 2.126358946000000191e-03 2.955337939999999760e-04 7.932895409600000391e+00 4.076022916908000226e+00 7.928219265525999759e+00 3.968790194098000157e+00 8.143920603468000508e+00 4.957231026999999769e-03 3.961145735627999986e+00 4.073367852458000371e+00 3.968252200168000066e+00 4.230509650000000357e-03 8.142122551577999801e+00 3.966665583979999798e+00 7.933901369654999591e+00 4.073581631778999679e+00 3.962623315386999856e+00 3.966689962261999991e+00 5.327350649999999582e-04 3.969326260278999818e+00 3.970005098200000138e+00 4.068378983848999653e+00 1.992840410304000054e+00 1.985836258111999930e+00 2.105108115979000161e+00 1.984407937740999994e+00 1.980335035453999915e+00 6.182190835646999894e+00 1.982874033762000110e+00 5.958755919002999946e+00 2.104041331073000176e+00 1.986439042847000014e+00 5.944865430690000174e+00 6.173113859956999683e+00 5.949708515520000240e+00 1.979790357364000108e+00 2.100025429685000056e+00 5.952159447907999557e+00 1.987734187640000094e+00 6.176001894324000041e+00 5.949112708006000005e+00 5.947802595974000184e+00 2.096929825370999811e+00 5.950846434244000172e+00 5.948175120675999850e+00 6.183905570932999751e+00 7.934401443978000401e+00 2.001283144873999831e+00 1.960298491561000001e+00 7.928421064123999606e+00 1.983066649159000105e+00 6.038392153174999777e+00 1.132064705999999898e-03 5.952625134893000158e+00 1.952555555577000002e+00 6.680335538000000371e-03 5.962231035598000162e+00 6.020869578036999847e+00 3.970000501859999975e+00 1.976458078332000046e+00 1.958649987005999904e+00 3.974211007924000061e+00 1.992057140036000096e+00 6.028126494889000320e+00 3.963771038251000078e+00 5.954191136945000018e+00 1.951032461795999984e+00 3.976947623821000199e+00 5.955666720162000161e+00 6.033162526353000210e+00 1.985437583301999931e+00 7.825831466000000847e-03 1.959051960710999962e+00 1.988621150196000054e+00 7.931631572342999981e+00 6.042497482983000268e+00 1.984334270738999928e+00 3.972517764351000125e+00 1.959208429632000037e+00 1.969655698311000069e+00 3.983766767677999976e+00 6.024511155421000019e+00 5.956105615641000384e+00 7.922731021051999889e+00 1.968401288027000096e+00 5.943776268086000236e+00 7.932503833945999894e+00 6.019814876517999735e+00 5.942501081184000000e+00 3.962628916596000028e+00 1.971782446905000041e+00 5.931983650712999712e+00 3.967368278333000209e+00 6.045754159219000279e+00 1.994941047718999938e+00 1.975832898358999890e+00 3.954964054892000203e+00 1.976268418489999901e+00 1.977585902079999958e+00 8.007872063661000794e+00 1.986245197726999923e+00 5.938816963908999824e+00 3.937951578342000047e+00 1.986046591787999915e+00 5.948341819849000345e+00 8.018431802471999603e+00 5.943669212398000390e+00 1.988161308271999994e+00 3.938300082638999999e+00 5.949713293521999624e+00 1.978346585561000071e+00 8.011649233738999953e+00 5.956392714964000135e+00 5.956687428374999982e+00 3.944445327248999877e+00 5.951332413693999790e+00 5.956988599616999558e+00 8.026810329009000711e+00
9.742114116999999601e-03 7.928942119881000394e+00 1.267018417200000031e-02 1.389637523000000069e-03 7.922743884052000141e+00 4.093661881318999995e+00 7.895281254696000062e+00 3.975526636246999868e+00 8.139250101182000208e+00 2.919913312300000119e-02 3.930099593957999904e+00 4.077438655519999955e+00 3.972296195016999931e+00 2.470754285799999991e-02 8.127910402942999823e+00 3.963255138717999948e+00 7.928687450944999604e+00 4.079320638248000286e+00 3.938620861496000103e+00 3.963217850157000122e+00 3.302724736000000032e-03 3.978865395610000188e+00 3.982810633523000021e+00 4.048123925458999572e+00 2.035064035391000115e+00 1.997364579277999930e+00 2.110812283481999785e+00 1.988778374193000076e+00 1.961257152536999948e+00 6.199605065494999678e+00 1.978484056079000020e+00 5.993646177513999973e+00 2.096970661644999900e+00 1.998660479510000032e+00 5.914792206989000434e+00 6.155542332886000167e+00 5.945233740675999634e+00 1.960861010971000074e+00 2.078839522001000084e+00 5.955373277578000391e+00 2.004622098118999940e+00 6.168125920168000320e+00 5.939350584499999641e+00 5.932085535733000015e+00 2.062844225351999849e+00 5.948640722203999864e+00 5.936616258315999595e+00 6.212550814195999749e+00 9.110702929999999573e-04 2.080876990944000138e+00 1.962430957840000101e+00 7.902872045405000101e+00 1.982167867490999935e+00 6.064975121938999791e+00 8.265257800000000085e-03 5.957992400635999886e+00 1.918078696952000062e+00 3.204406049700000286e-02 6.012996221230999971e+00 5.971022063242999778e+00 3.976006707101999993e+00 1.942700928524000004e+00 1.948984604002000021e+00 3.992915274625000066e+00 2.032754997080000070e+00 6.012132073193000359e+00 3.947789769953999883e+00 5.969451897664000306e+00 1.909866145634000034e+00 4.017850509540999759e+00 5.975080731312999660e+00 6.038350231602000129e+00 1.991465955063999926e+00 4.628700312000000316e-02 1.955596892171000079e+00 2.012861264890999813e+00 7.926617083854000434e+00 6.089205078338999932e+00 1.989976407549000070e+00 3.986204752066000001e+00 1.955788684425000090e+00 1.906273922867999904e+00 4.048140687989000064e+00 5.990865176373000089e+00 5.979596464221000218e+00 7.876135490730000299e+00 2.006317332701000211e+00 5.909937986176999836e+00 7.923433065634999828e+00 5.965068328203000370e+00 5.899346957878999653e+00 3.940744159248000145e+00 2.022505845073999886e+00 5.848536129878000089e+00 3.970949554140999815e+00 6.110008157049000133e+00 2.046421336163000149e+00 1.940907494339999984e+00 3.998271593900000198e+00 1.943944353617000020e+00 1.953499554163000029e+00 7.982818052510999962e+00 1.999419092729999958e+00 5.886153140079000146e+00 3.917354020709999940e+00 1.997121336645000023e+00 5.934471788653000068e+00 8.025148708335999359e+00 5.909787199193000440e+00 2.007811026923000064e+00 3.915583161888000152e+00 5.942159348963000021e+00 1.951450058874000026e+00 8.000692658714999794e+00 5.980424778976000333e+00 5.976872652515000439e+00 3.944516362193000170e+00 5.954113174637999606e+00 5.982864717038999913e+00 8.075191202447999927e+00
1.771037525099999899e-02 7.922470720690999890e+00 2.278193349099999834e-02 1.141019389000000024e-03 7.911071289648000437e+00 4.109778556010000194e+00 7.863144338959999757e+00 3.981391208113000069e+00 8.134763329180000113e+00 5.135340690000000236e-02 3.900322162355000177e+00 4.078890454895000239e+00 3.975721029238000082e+00 4.285083248399999822e-02 8.111990049861999452e+00 3.961080743749000099e+00 7.921523092918000053e+00 4.084663561523999675e+00 3.914448547686999902e+00 3.960065540402999851e+00 6.427989763000000259e-03 3.988379270549999855e+00 3.995057852483999916e+00 4.027821833485999647e+00 2.064529642151999855e+00 2.012206548718999954e+00 2.127170270269000074e+00 1.996544604467000106e+00 1.933959386815000014e+00 6.194751883920000424e+00 1.973430238296999928e+00 6.016858651258999657e+00 2.080329909996999849e+00 2.005191428783000163e+00 5.891462296359000206e+00 6.147656029662000421e+00 5.950562690834000357e+00 1.944527950079000034e+00 2.066960280600000033e+00 5.951407688418999697e+00 2.010045664154000100e+00 6.156655201862999860e+00 5.930526261450999925e+00 5.919327210163999986e+00 2.047515105876999808e+00 5.944037770150999656e+00 5.936077192272000147e+00 6.224989701370000184e+00 2.656796921000000120e-03 2.128564170739000172e+00 1.963248936697000069e+00 7.894320545974999881e+00 1.988990560891999992e+00 6.073336107215999924e+00 2.169445374600000032e-02 5.955549293495000285e+00 1.890505031670999925e+00 3.185929210999999955e-02 6.045512662631000289e+00 5.947804840195000331e+00 3.964363679583000177e+00 1.919288515059000000e+00 1.927079555746999961e+00 3.965806758310999935e+00 2.066538975269999856e+00 6.011149612339999670e+00 3.939967561647999883e+00 5.984863644584000220e+00 1.879267031731999937e+00 4.030497975385999965e+00 5.982370252345000416e+00 6.043966253096000329e+00 1.987224245014000079e+00 7.016212841799999989e-02 1.952753940215999906e+00 2.033889836769999793e+00 2.364662464999999977e-02 6.116131348180999794e+00 2.004916425842000027e+00 3.967410056137000041e+00 1.951877260357000043e+00 1.869260625904000106e+00 4.052655073326000057e+00 5.974563333277999710e+00 5.997036640704999755e+00 7.877903671356000004e+00 2.024574182808000167e+00 5.887569032344000419e+00 7.926393265046000280e+00 5.937660225444999718e+00 5.858360795827000089e+00 3.930887310229000065e+00 2.037070405446999910e+00 5.810556122189000305e+00 3.984961061117000103e+00 6.159338514299999900e+00 2.078140765134000034e+00 1.924292415422000024e+00 4.000306947012999714e+00 1.929677489426000037e+00 1.953803960444999932e+00 8.000601996806999239e+00 2.013754196127000018e+00 5.867209815916000437e+00 3.913621327191000088e+00 2.004938750437000206e+00 5.920985113632999841e+00 8.011255828389000300e+00 5.889116084280000329e+00 2.017225770585000078e+00 3.906539209399999990e+00 5.933169866563000383e+00 1.926055171718999981e+00 8.013451942541999884e+00 5.994611320823000078e+00 5.969019634410999586e+00 3.928840740025000056e+00 5.961961824338000149e+00 5.996296665045999674e+00 8.095447981116999259e+00
2.574701854599999867e-02 7.916633104121999942e+00 3.232084324900000305e-02 7.926266498999000376e+00 7.899119919470999562e+00 4.123717350733000053e+00 7.834296369808000371e+00 3.985515396777000063e+00 8.131781789719999765e+00 7.047734886699999479e-02 3.873372098337000136e+00 4.077173024848000260e+00 3.978581788401999830e+00 5.825311081299999749e-02 8.095930637326999246e+00 3.961056472562999975e+00 7.913353769018000250e+00 4.089259509426000250e+00 3.890752279937999880e+00 3.957161937462999823e+00 9.948893037999999300e-03 3.998300649482999791e+00 4.006936251677999827e+00 4.008455428748000315e+00 2.076969239227000052e+00 2.030955524937000156e+00 2.144825740794999991e+00 2.008313438360000092e+00 1.902954757690999976e+00 6.178335463120999904e+00 1.968556710949999955e+00 6.027396912583999899e+00 2.057819110987999967e+00 2.003655464148000220e+00 5.874636119434000214e+00 6.148973847240999824e+00 5.969822988034000133e+00 1.931846746206999921e+00 2.065345230305999813e+00 5.940911324167999830e+00 2.002183856407000029e+00 6.146921346481000192e+00 5.923161446708999911e+00 5.910548329557999914e+00 2.054479642202999834e+00 5.938741777157999557e+00 5.947926270736999754e+00 6.219958697427999894e+00 7.915578220463999948e+00 2.131588054923999831e+00 1.967668231972999893e+00 7.888287989205999828e+00 2.002223351940000118e+00 6.056820853986000230e+00 4.106015784900000215e-02 5.943246512053000252e+00 1.877378534073000038e+00 7.481827301999999583e-03 6.054411264435000106e+00 5.962805597424000403e+00 3.948589223951000093e+00 1.911580302898000072e+00 1.899704813282999893e+00 3.909738046133000022e+00 2.088029804513999999e+00 6.028034591246999696e+00 3.945940253653999807e+00 6.001542968135000322e+00 1.866727209898999984e+00 4.003496716289999924e+00 5.976669525665999849e+00 6.048218744857000395e+00 1.967995186323999945e+00 4.898418752900000200e-02 1.952720509466999932e+00 2.044912997012000133e+00 6.727566650699999540e-02 6.114487757701000170e+00 2.030453842921000174e+00 3.932941190520999886e+00 1.953645141841999999e+00 1.868430241973999983e+00 4.009411784712000326e+00 5.982032933318000012e+00 6.006541396405999933e+00 2.823133719999999965e-04 2.020607665702999878e+00 5.880193646416000064e+00 2.272104964800000099e-02 5.946825380561000074e+00 5.825953608932000094e+00 3.948061271424000207e+00 2.004749374160999853e+00 5.833427125543000358e+00 4.003440519507000417e+00 6.183202835453999846e+00 2.081126026439000132e+00 1.931957268494000068e+00 3.975412263591000084e+00 1.937568639847000007e+00 1.982673412223999954e+00 8.036455754068999369e+00 2.026565289645000156e+00 5.893111497252999875e+00 3.919120599135000216e+00 2.005821260648000148e+00 5.911769855856999989e+00 7.981034913452999646e+00 5.885932223890000259e+00 2.015537951150999874e+00 3.927189772054000105e+00 5.924551670717000285e+00 1.908399897845000082e+00 8.030168487234000452e+00 5.994266793947000238e+00 5.931404139839999701e+00 3.900982572378000057e+00 5.974427190663999632e+00 5.998392768220999649e+00 8.074468642428000109e+00
3.391560436600000311e-02 7.914849120017000139e+00 4.104076806899999846e-02 7.921369614558000372e+00 7.889245902485000350e+00 4.135612167127000305e+00 7.811574436697999779e+00 3.987329121410999822e+00 8.131447541760000064e+00 8.623500235299999539e-02 3.851113823622000165e+00 4.073818323897000049e+00 3.981337884799000193e+00 7.116257301400000235e-02 8.082972823524000816e+00 3.963587857788999802e+00 7.906631106442000068e+00 4.092814039908000190e+00 3.869149418041000210e+00 3.954528188255999943e+00 1.315559952900000051e-02 4.009020964697000089e+00 4.018780699658000444e+00 3.991939373582999995e+00 2.075971555944999825e+00 2.049719711992000093e+00 2.145034476495999876e+00 2.019247985554000202e+00 1.887088893118000099e+00 6.171319455755000405e+00 1.965394566402000054e+00 6.031889490681000332e+00 2.039946562144999920e+00 1.995172842439999927e+00 5.855230917623999609e+00 6.152020740914999841e+00 6.000812134931000408e+00 1.923745300938999980e+00 2.072239934863000066e+00 5.932335185752999784e+00 1.987014930496000087e+00 6.144081055460000051e+00 5.917127642385000108e+00 5.903606090271000362e+00 2.073798630093000028e+00 5.936180030562000276e+00 5.964671366615999837e+00 6.205546861366999956e+00 7.877688497534999890e+00 2.095518518278999931e+00 1.981023230928000034e+00 7.867112720526000302e+00 2.012838082618999991e+00 6.021227541521000148e+00 5.410414731299999919e-02 5.922501595704000366e+00 1.881956025003999944e+00 7.896554176473999931e+00 6.043457252229000431e+00 6.008986381086000250e+00 3.942251563317999974e+00 1.917724365605000036e+00 1.885989239016000019e+00 3.874820851621000095e+00 2.095481935871000179e+00 6.054025263788999744e+00 3.970135486265999880e+00 6.020577622514999838e+00 1.873981231231000022e+00 3.950373035254000076e+00 5.965585115532999971e+00 6.045900735134999593e+00 1.936970620307000068e+00 7.903685967053999839e+00 1.956037301887999957e+00 2.038587408588000027e+00 7.011152658600000587e-02 6.083974312022999875e+00 2.057717434109000099e+00 3.914598783133000026e+00 1.969033727997999916e+00 1.898968583710000102e+00 3.975980882426000118e+00 6.006449683984000032e+00 6.009963663149999746e+00 6.233377319800000038e-02 2.002700966243999847e+00 5.881015799510000086e+00 5.983537813599999755e-02 5.984286721532999564e+00 5.812562013033000241e+00 3.996704026263000031e+00 1.935869939717999921e+00 5.903413649824999609e+00 4.018734952755999679e+00 6.173202439030999855e+00 2.055834455888000178e+00 1.954808384913000019e+00 3.960186832833000103e+00 1.957509798110999899e+00 2.023369168179999900e+00 8.051527598803000174e+00 2.031610247929999780e+00 5.953898887035999898e+00 3.923330745866000058e+00 1.996781736551999975e+00 5.912701069342999993e+00 7.961068720627999973e+00 5.895740251124999887e+00 2.011888726551000151e+00 3.976171350902999890e+00 5.919578853451000100e+00 1.906392401621000099e+00 8.029245015317000522e+00 5.980986868890999730e+00 5.885362365812000007e+00 3.880180412060000084e+00 5.986496334025000365e+00 6.002597200719000270e+00 8.024518745872999403e+00
4.165211513099999902e-02 7.920332703198000424e+00 4.812928216199999915e-02 7.920806626867999967e+00 7.884594049233999868e+00 4.147194539687999892e+00 7.797993543836000185e+00 3.988260830494000153e+00 8.135510534429000629e+00 9.819874968899999779e-02 3.836324756688000104e+00 4.072165724645000040e+00 3.985471039380000136e+00 8.110835790699999492e-02 8.077270790308000770e+00 3.969199383597000086e+00 7.905165708881000342e+00 4.096289396453999920e+00 3.852825541476000204e+00 3.953989177936000132e+00 1.481444712600000005e-02 4.021507301097999587e+00 4.031415753015999748e+00 3.981104290289999792e+00 2.071777565899000084e+00 2.064479830699999852e+00 2.121018639778999848e+00 2.023305486032000111e+00 1.896227746090999977e+00 6.180977889599000186e+00 1.964026421208999951e+00 6.035280145297999610e+00 2.035836939183000016e+00 1.983780772857000052e+00 5.833913915293999608e+00 6.151551783058000211e+00 6.033640931283000164e+00 1.921863126601000005e+00 2.087787785570999866e+00 5.936396805833999757e+00 1.975980067889999914e+00 6.148771685795000330e+00 5.914779134803000105e+00 5.897815789247999874e+00 2.089583906015000103e+00 5.940543808276999904e+00 5.975574480298000424e+00 6.190698294443000016e+00 7.854371575732000288e+00 2.042049413948999970e+00 2.001514869091999937e+00 7.848628003805999676e+00 2.011578696522000165e+00 5.984691959885999779e+00 4.633252530799999991e-02 5.897583708417999837e+00 1.902892285675999995e+00 7.869367715509000050e+00 6.024134822051999905e+00 6.063763367662000192e+00 3.934947578293999992e+00 1.932316515529000078e+00 1.902437756891999898e+00 3.888735548127999930e+00 2.088142912554999953e+00 6.077871537583999562e+00 4.008014493824999747e+00 6.044417099927000159e+00 1.898062324147999913e+00 3.903972989150000128e+00 5.957453214523000362e+00 6.034949719900000176e+00 1.906780102636000063e+00 7.843088541658000068e+00 1.957719890784000105e+00 2.012144805678000026e+00 2.694198034199999855e-02 6.038432769846999726e+00 2.073810521856000122e+00 3.920274098655000206e+00 2.000406528277999918e+00 1.943062589479999991e+00 3.980842073154999827e+00 6.033926910237999763e+00 6.010328865395999642e+00 9.179182039899999590e-02 1.983260055736000060e+00 5.880740208870999908e+00 7.792809697600000529e-02 6.030672209547000229e+00 5.827347142289999837e+00 4.054230462168000315e+00 1.855288812968999945e+00 5.987788693850999877e+00 4.032300554525999559e+00 6.129861654311000052e+00 2.011272005192000112e+00 1.977448960707000047e+00 3.966938217581999826e+00 1.971069349833000084e+00 2.050509890752000075e+00 8.044363945876000344e+00 2.024055325112999792e+00 6.022186290070999704e+00 3.926040015103999803e+00 1.978677478250999933e+00 5.925666102911000266e+00 7.982730050246000353e+00 5.910529030362999592e+00 2.017544391762000178e+00 4.020950643027999760e+00 5.922391372525000364e+00 1.926817534663000098e+00 8.020895712556999513e+00 5.963143767609000001e+00 5.860697682795000141e+00 3.894773213422999980e+00 5.989672904440999979e+00 6.024306940903000118e+00 7.981502307020000408e+00
4.798060938999999803e-02 7.932956390206999941e+00 5.259081516999999928e-02 7.926808693776999704e+00 7.886213794964000101e+00 4.159668656135999676e+00 7.794377661817000202e+00 3.990459624210000111e+00 8.144315368414000389e+00 1.057253917980000013e-01 3.831129558026999948e+00 4.074277277399000141e+00 3.992063987993999863e+00 8.676734914399999998e-02 8.080539815668000614e+00 3.977505591844999966e+00 7.910956209711000220e+00 4.100648346734000249e+00 3.844418986455000020e+00 3.957891700974999871e+00 1.408033675500000061e-02 4.036021501386000132e+00 4.044841274066000025e+00 3.977767014882000129e+00 2.071646127923000069e+00 2.073526607472000016e+00 2.088516609742999908e+00 2.020529228496000140e+00 1.917351859525999958e+00 6.195980769695999868e+00 1.960911509320000023e+00 6.036181978572000340e+00 2.047194547985999868e+00 1.973175506170000038e+00 5.825705916807000229e+00 6.152176299749999799e+00 6.055269006628999584e+00 1.923186208314999979e+00 2.111787396028999897e+00 5.956860650531999646e+00 1.977407419161000046e+00 6.158692277445999785e+00 5.921472726709000156e+00 5.898942872677999993e+00 2.095709103068999823e+00 5.953623323969999603e+00 5.973463925687999776e+00 6.177783294236999900e+00 7.885753639874000243e+00 1.996658955040000016e+00 2.019482835279000188e+00 7.869264906017000349e+00 1.995431130922000085e+00 5.969641254893000237e+00 1.918545942300000154e-02 5.875871260158000098e+00 1.936163677442999997e+00 7.878092469844999890e+00 6.006420091028999764e+00 6.104001339988999852e+00 3.916058754509999851e+00 1.950279188077999937e+00 1.948041883354000081e+00 3.928178425150000042e+00 2.067206850859999889e+00 6.093074116772999815e+00 4.036743939764999567e+00 6.070867550116999745e+00 1.933075885759000023e+00 3.889724143295000047e+00 5.953375603276000128e+00 6.020167177219000187e+00 1.890297897309000108e+00 7.863590044976000115e+00 1.949690659457000041e+00 1.972562634908000101e+00 3.413827092999999983e-03 6.003786217530000080e+00 2.071035251575000125e+00 3.935146971608999955e+00 2.037098867287999937e+00 1.980808259168000074e+00 3.995961086733999856e+00 6.053545320952999909e+00 6.007293887301999646e+00 8.223991291299999340e-02 1.971742057112999991e+00 5.876657635383000233e+00 6.170445050000000070e-02 6.066381043124000172e+00 5.867138392315999873e+00 4.076697022341999599e+00 1.790135526765999963e+00 6.052312460059000365e+00 4.042115267663000111e+00 6.066472424586000223e+00 1.964532738619999996e+00 1.990407774729999968e+00 3.971638475289999803e+00 1.965142876130999916e+00 2.050388673681000196e+00 8.036940761490999563e+00 2.003912520931999897e+00 6.065306882936000399e+00 3.933857114228000107e+00 1.958140407578000008e+00 5.943618423374999793e+00 8.042625725701000761e+00 5.923300948298999558e+00 2.036025613117999900e+00 4.020502020919000330e+00 5.935398595468999616e+00 1.971165978252999995e+00 8.029611486921000463e+00 5.948551111575000050e+00 5.873549579967000334e+00 3.945623836758000103e+00 5.975101777105000345e+00 6.064480722762000120e+00 7.980820491039000153e+00
5.214305216799999809e-02 9.771093529999999843e-04 5.414296946199999988e-02 7.937114704826999656e+00 7.891228488767000115e+00 4.171204514160000265e+00 7.797971821574999574e+00 3.993851121465000098e+00 8.154809619526000475e+00 1.088094755490000010e-01 3.834788115918000173e+00 4.078524582133000287e+00 4.000001800031999899e+00 8.710682440899999990e-02 8.089943800784000771e+00 3.985964499922999948e+00 7.921647263594000066e+00 4.104781079626000029e+00 3.843558849010999978e+00 3.966166183226000008e+00 1.110778245099999957e-02 4.050367609559000215e+00 4.056821110171999756e+00 3.980888894772999897e+00 2.070702552049000111e+00 2.071341889395999836e+00 2.068482335409000061e+00 2.012806551022999990e+00 1.934652745461000078e+00 6.198269802617000224e+00 1.951311040493999949e+00 6.039853118162000101e+00 2.068784796256000202e+00 1.965662029775000041e+00 5.842676925377999986e+00 6.160729779902999859e+00 6.064784058939999944e+00 1.921501240413999945e+00 2.138240598033000150e+00 5.988532380702999980e+00 1.988588336472999929e+00 6.173234011935000431e+00 5.938611520992999715e+00 5.909872632358999844e+00 2.096650823132999886e+00 5.971927248842000324e+00 5.958102348663000036e+00 6.167526538369999756e+00 7.944555019826999853e+00 1.975422485286999930e+00 2.025320303815000056e+00 7.927948408205000241e+00 1.969463648299000003e+00 5.988718208015000322e+00 7.936690677678999606e+00 5.866983215018000131e+00 1.977750256048000033e+00 7.929001470040000221e+00 5.991334594641999800e+00 6.118954579586000087e+00 3.907009075534999987e+00 1.967910019160999946e+00 2.003560023857000161e+00 3.962124497382999877e+00 2.038274485690999782e+00 6.096784993536999764e+00 4.032007511667999644e+00 6.087221469628000037e+00 1.973553805569000064e+00 3.905077215418999881e+00 5.948787608411000072e+00 6.010881961595000433e+00 1.894920705050000098e+00 7.946080559033999791e+00 1.932698534243000088e+00 1.935480469465999942e+00 3.615539649800000171e-02 6.000302852239999929e+00 2.050617055582999892e+00 3.960017008598000210e+00 2.060533203168999794e+00 2.000694375845999851e+00 3.991789903801000072e+00 6.060363877454999937e+00 5.999424708323999766e+00 5.938916443199999950e-02 1.972799720915999977e+00 5.875542384613000380e+00 3.345246560100000044e-02 6.076296482292000256e+00 5.914488561203000039e+00 4.045854586493000227e+00 1.766407594386999902e+00 6.077085616507000410e+00 4.035129915835000247e+00 6.002963470516999855e+00 1.934158597564000104e+00 1.992022889773999994e+00 3.959613046823999838e+00 1.942054929381999973e+00 2.029049256227999809e+00 8.043878770422999480e+00 1.974848468255999911e+00 6.063655899592999887e+00 3.949724813867999895e+00 1.945332568286999964e+00 5.955053472131999648e+00 8.102289447945999257e+00 5.932053137977000290e+00 2.060768091313000205e+00 3.966656512890000208e+00 5.955881033849999895e+00 2.029643631092000078e+00 8.048581895300999989e+00 5.940304607895999567e+00 5.921590087771000377e+00 3.996130996505999899e+00 5.941332280999000126e+00 6.102569788139000195e+00 8.016453270720999669e+00
5.383670396899999794e-02 4.591900948000000003e-03 5.320321505600000139e-02 7.947037298607000366e+00 7.895375243522999575e+00 4.178273247738999885e+00 7.805108251144000420e+00 3.996113932469000041e+00 8.162827488505000062e+00 1.084200825709999982e-01 3.844477587667999963e+00 4.081121487925999602e+00 4.006710852893999864e+00 8.229163640999999363e-02 8.100624897817999326e+00 3.991246987894999876e+00 7.932778789791999685e+00 4.106181115463000353e+00 3.847494124980999963e+00 3.976284079033999941e+00 6.862341903999999958e-03 4.060759922625999607e+00 4.064028328480000063e+00 3.987386583515999838e+00 2.061013241893999925e+00 2.053293319326999988e+00 2.069931723334999862e+00 2.001861099679000056e+00 1.943191945983000046e+00 6.181754329031999617e+00 1.936788011338000048e+00 6.049213827654000397e+00 2.093915481593000116e+00 1.963496979090999961e+00 5.877427976627999762e+00 6.177762517720999824e+00 6.067767140036999685e+00 1.917070390237999966e+00 2.152084241385999963e+00 6.019817506645999572e+00 2.000744726028000020e+00 6.194497163899000292e+00 5.958408542416999687e+00 5.924525594185999999e+00 2.095014580273999893e+00 5.986602449661999614e+00 5.935844123359999891e+00 6.161214463315999978e+00 1.204762751300000011e-02 1.980540292513000011e+00 2.014227376425000049e+00 1.878418754899999904e-02 1.946245919424000048e+00 6.033840019710000391e+00 7.923021430640999618e+00 5.881205578427000091e+00 2.021610424148000185e+00 3.532823813899999693e-02 5.975411632203000423e+00 6.111324504375000188e+00 3.932852214537999824e+00 1.984057495250999947e+00 2.044378010647000199e+00 3.988219722549999791e+00 2.009791114192000183e+00 6.086767387863000422e+00 3.994153878525999790e+00 6.077824008710999593e+00 2.016555063729999819e+00 3.934711772546000130e+00 5.941131503134999825e+00 6.014976241261000389e+00 1.920106406556999934e+00 5.517567409199999884e-02 1.916759167721000079e+00 1.920146410022999905e+00 9.091955048399999462e-02 6.029614201069000146e+00 2.018682046128000174e+00 4.005802799689000437e+00 2.056481067272999841e+00 2.001526926791000083e+00 3.986134004069000092e+00 6.055045407086000253e+00 5.988741085678999987e+00 3.705176868800000300e-02 1.985288024868999912e+00 5.891210351572000015e+00 2.056791812599999963e-02 6.055796264162999876e+00 5.948403656506999759e+00 3.995541409183000159e+00 1.803323532737999946e+00 6.061666313459999955e+00 4.007428843401999785e+00 5.957231511660999956e+00 1.931329412536000101e+00 1.985236001859999933e+00 3.942662161227000084e+00 1.917954325026000051e+00 2.003737283102000166e+00 8.057447253613000626e+00 1.941277491561999913e+00 6.023822321966999738e+00 3.972904919208000152e+00 1.946356876941000014e+00 5.956360452183999676e+00 8.124803471833999424e+00 5.940879029923999965e+00 2.080990216920000080e+00 3.909330596598000085e+00 5.977906422710000278e+00 2.081087951244000145e+00 8.039049905720000666e+00 5.940950051936000342e+00 5.988196457075999568e+00 4.015181516286999930e+00 5.900050612958000151e+00 6.107798875278000139e+00 8.048139073314999337e+00
5.304642137800000268e-02 8.594760128999999818e-03 5.002563110899999749e-02 7.953036357240000243e+00 7.896315984676999911e+00 4.178941682812999936e+00 7.814446413818999737e+00 3.995433202521999849e+00 8.166607931571000734e+00 1.052513598949999934e-01 3.858198395945000136e+00 4.079525032767000070e+00 4.010389241708000263e+00 7.322646089400000613e-02 8.109404285874999729e+00 3.992071931211000013e+00 7.941593127101000071e+00 4.103422727905000400e+00 3.853618175123000089e+00 3.985816371220999965e+00 2.384774185999999786e-03 4.064653255346000194e+00 4.064366104021000403e+00 3.994798969604000050e+00 2.045529234866999779e+00 2.023784740308999908e+00 2.087927855444999814e+00 1.993514955048999893e+00 1.949655487874000004e+00 6.156588354294999732e+00 1.926902481089999952e+00 6.053318161811000131e+00 2.120306982885999947e+00 1.969302156648000013e+00 5.912337164566999981e+00 6.200332123625000413e+00 6.062206552510000179e+00 1.916198871208999899e+00 2.141442438739999954e+00 6.037805969591000022e+00 2.005666431736000010e+00 6.216927738337999720e+00 5.970685302490999824e+00 5.936930489788999843e+00 2.093253784509999882e+00 5.986959891996000316e+00 5.915659073774000021e+00 6.156832747222000357e+00 7.946362717425000000e+00 2.003736731426999818e+00 1.986463767625000099e+00 1.307017998999999986e-02 1.940734413983999929e+00 6.082724298581999811e+00 7.908388714576999767e+00 5.925674489900999653e+00 2.053587473444999922e+00 5.977892727899999925e-02 5.958105463874000307e+00 6.090056610799999604e+00 3.973072360379999779e+00 1.999531683550000105e+00 2.051472570297999898e+00 4.007214036328000439e+00 1.989233685696000009e+00 6.065091452325000354e+00 3.941680431905000059e+00 6.040233451980999924e+00 2.055206959717999826e+00 3.970693381648000120e+00 5.934005598810999871e+00 6.034222028807000093e+00 1.956548556088999913e+00 5.604473037200000118e-02 1.912805095808999933e+00 1.937028810945000012e+00 1.034680132320000001e-01 6.075087705734000032e+00 1.981110304086999951e+00 4.056025481973000169e+00 2.022028420254000203e+00 1.988725489367000110e+00 4.003794047210999629e+00 6.042385656228000279e+00 5.978809114546000281e+00 1.047431760200000055e-02 1.999004390337999926e+00 5.934464414593000114e+00 2.145943999100000110e-02 6.016914110769000068e+00 5.959333284629000360e+00 3.974741119885000007e+00 1.896060565595999892e+00 6.022169358493999702e+00 3.982109898981999851e+00 5.939595294176999829e+00 1.952230505858999932e+00 1.974153085094999982e+00 3.937782189841999791e+00 1.910620973304000048e+00 1.991300167773000007e+00 8.062019701140000549e+00 1.910011474777999929e+00 5.974088514158999885e+00 3.998672756112000126e+00 1.958409742031999912e+00 5.956611735649000039e+00 8.095075627466000512e+00 5.957450124371000300e+00 2.085875485317000066e+00 3.911331446895999875e+00 5.995417198355999844e+00 2.104904509539999857e+00 7.995472043331999679e+00 5.952373373638000231e+00 6.048572035848000183e+00 3.999419698396000200e+00 5.872140077703000394e+00 6.062414530372000065e+00 8.047412865910999358e+00