-2.861086642099999881e+04
-2.861030831630000102e+04
-2.860996357830000125e+04
-2.861009268579999843e+04
-2.861017200800000137e+04
-2.860997548749999987e+04
-2.860983257009999943e+04
-2.860984320930000104e+04
-2.860975227290000112e+04
-2.860979546040000059e+04
-2.860992461610000100e+04
-2.861000503380000009e+04
-2.860974416189999829e+04
-2.860953998190000129e+04
-2.860979170040000099e+04
-2.860973438259999966e+04
-2.860933988490000047e+04
-2.860892304040000090e+04
-2.860901207789999899e+04
-2.860902220529999977e+04
-2.860872551770000064e+04
-2.860813110099999903e+04
-2.860804832109999916e+04
-2.860784259029999885e+04
-2.860813791130000027e+04
-2.860818346069999825e+04
-2.860781477459999951e+04
-2.860772384830000010e+04
-2.860828998209999918e+04
-2.860842117629999848e+04
-2.860858729540000058e+04
-2.860897110539999994e+04
-2.860897785020000083e+04
-2.860891319469999871e+04
-2.860926215909999883e+04
-2.860935046850000072e+04
-2.860938859959999900e+04
-2.860921563320000132e+04
-2.860926171230000182e+04
-2.860934278270000141e+04
-2.860958487099999911e+04
-2.860967202510000061e+04
-2.860969967130000077e+04
-2.860983609269999943e+04
-2.860984996830000091e+04
-2.861009224990000075e+04
-2.861008921710000141e+04
-2.861022529950000171e+04
-2.861024984609999956e+04
-2.861026647579999917e+04
-2.861031420530000105e+04
-2.861026559980000093e+04
-2.861019532909999907e+04
-2.861003291049999825e+04
-2.861012240380000003e+04
-2.861006480010000087e+04
-2.861000397570000132e+04
-2.861001446969999961e+04
-2.860993099430000075e+04
-2.860990443230000164e+04
-2.861002550580000025e+04
-2.861015404480000143e+04
-2.861003936690000046e+04
-2.860978404460000093e+04
-2.860985136319999947e+04
-2.860993968390000009e+04
-2.860979947130000073e+04
-2.860927769679999983e+04
-2.860907777219999844e+04
-2.860905770539999867e+04
-2.860862493940000059e+04
-2.860846049430000130e+04
-2.860827725569999893e+04
-2.860852483159999974e+04
-2.860862263230000099e+04
-2.860842620249999891e+04
-2.860817548990000068e+04
-2.860783369319999838e+04
-2.860822795409999890e+04
-2.860864758150000125e+04
-2.860907606410000153e+04
-2.860877114319999964e+04
-2.860842280350000146e+04
-2.860827915890000077e+04
-2.860855694690000018e+04
-2.860889865479999935e+04
-2.860889272419999907e+04
-2.860895374770000126e+04
-2.860920499420000124e+04
-2.860937800689999858e+04
-2.860931409089999943e+04
-2.860946297119999872e+04
-2.860968414199999825e+04
-2.860973864310000135e+04
-2.860976630719999957e+04
-2.860979306540000107e+04
-2.861002340760000152e+04
-2.861011730850000095e+04
-2.861011824239999987e+04
-2.861015191860000050e+04
-2.861017740190000040e+04
-2.861007525900000110e+04
-2.861005787029999919e+04
-2.861013196039999821e+04
-2.861018305479999981e+04
-2.861013786909999908e+04
-2.861011163129999841e+04
-2.861011194479999904e+04
-2.860990720080000028e+04
-2.860993641710000156e+04
-2.860998032260000036e+04
-2.861005125709999993e+04
-2.861008805040000152e+04
-2.861011677580000105e+04
-2.860992416280000180e+04
-2.860988001939999958e+04
-2.860967952850000074e+04
-2.860954546470000059e+04
-2.860953436979999969e+04
-2.860915391950000048e+04
-2.860882188540000061e+04
-2.860863532629999827e+04
-2.860862889139999970e+04
-2.860876510839999901e+04
-2.860884273300000132e+04
-2.860884111720000146e+04
-2.860842969299999822e+04
-2.860841468800000075e+04
-2.860870720620000066e+04
-2.860852337160000025e+04
-2.860859870410000076e+04
-2.860796714770000108e+04
-2.860807703509999919e+04
-2.860815607309999905e+04
-2.860826214170000094e+04
-2.860843270449999909e+04
-2.860843681049999941e+04
-2.860865522129999954e+04
-2.860866916190000120e+04
-2.860892190109999865e+04
-2.860912739900000088e+04
-2.860939157429999977e+04
-2.860960094430000026e+04
-2.860966689770000085e+04
-2.860964705559999857e+04
-2.860978670599999896e+04
-2.860960717600000135e+04
-2.860980999679999877e+04
-2.860994148270000005e+04
-2.860999064740000176e+04
-2.860993678469999941e+04
-2.860988054660000125e+04
-2.861006630189999851e+04
-2.860995658719999847e+04
-2.861008026210000025e+04
-2.861003668710000056e+04
-2.861014199910000025e+04
-2.861017443410000124e+04
-2.861007489060000080e+04
-2.861010407219999979e+04
-2.860995744750000085e+04
-2.861006908130000011e+04
-2.860995151139999871e+04
-2.861001348299999881e+04
-2.860982685750000019e+04
-2.860981881440000143e+04
-2.860984614720000172e+04
-2.860966345390000060e+04
-2.860954367550000097e+04
-2.860934028100000069e+04
-2.860927416670000093e+04
-2.860930024530000082e+04
-2.860920821680000154e+04
-2.860900091869999960e+04
-2.860891677930000151e+04
-2.860878167219999887e+04
-2.860878612779999821e+04
-2.860842113940000127e+04
-2.860860120630000165e+04
-2.860852599209999971e+04
-2.860843717200000174e+04
-2.860808912390000114e+04
-2.860823676440000054e+04
-2.860822964019999927e+04
-2.860833202389999860e+04
-2.860813994390000153e+04
-2.860825772869999855e+04
-2.860813455400000021e+04
-2.860832977659999960e+04
-2.860897994499999913e+04
-2.860929363480000029e+04
-2.860932485960000122e+04
-2.860927516670000114e+04
-2.860954697020000094e+04
-2.860951434890000019e+04
-2.860960454269999900e+04
-2.860959506939999847e+04
-2.860963342159999956e+04
-2.860968925220000165e+04
-2.860973486150000099e+04
-2.860984939229999873e+04
-2.860993856640000013e+04
-2.861002626809999856e+04
-2.860999843730000066e+04
-2.861019123000000036e+04
-2.861010613100000046e+04
-2.861002940769999987e+04
-2.860998854260000007e+04
-2.861015399489999982e+04
-2.861018030979999821e+04
-2.861005975469999976e+04
-2.861001813799999945e+04
-2.860996251169999960e+04
-2.861015458270000090e+04
-2.860997503230000075e+04
-2.861002711350000027e+04
-2.860976696649999940e+04
-2.860957428639999853e+04
-2.860956587510000099e+04
-2.860953393950000100e+04
-2.860978433890000088e+04
-2.860949178340000071e+04
-2.860953810599999997e+04
-2.860926794750000045e+04
-2.860922505050000109e+04
-2.860909169910000128e+04
-2.860879601380000167e+04
-2.860889651329999833e+04
-2.860842161489999853e+04
-2.860862720529999933e+04
-2.860861981730000116e+04
-2.860817915759999960e+04
-2.860811653020000085e+04
-2.860805770919999850e+04
-2.860825919380000050e+04
-2.860836142670000118e+04
-2.860819975429999977e+04
-2.860830279710000104e+04
-2.860875242100000105e+04
-2.860871100669999942e+04
-2.860870859399999972e+04
-2.860894029969999974e+04
-2.860906492630000139e+04
-2.860929490109999824e+04
-2.860934771529999853e+04
-2.860947519919999831e+04
-2.860953922660000171e+04
-2.860966280700000061e+04
-2.860976910530000168e+04
-2.860971823980000045e+04
-2.860969512000000032e+04
-2.860984617580000122e+04
-2.861002025480000157e+04
-2.861000724030000129e+04
-2.861003560030000153e+04
-2.860998000020000109e+04
-2.860998635989999821e+04
-2.861015211339999951e+04
-2.861019790009999997e+04
-2.861011070370000016e+04
-2.861006397070000094e+04
-2.861018276770000011e+04
-2.861010161959999823e+04
-2.861001624390000143e+04
-2.861003927249999833e+04
-2.860998353439999846e+04
-2.860992856409999877e+04
-2.860984461519999968e+04
-2.860989880880000055e+04
-2.860977730320000046e+04
-2.860965384139999878e+04
-2.860957548540000062e+04
-2.860950762069999837e+04
-2.860930464600000050e+04
-2.860919564670000182e+04
-2.860924759510000149e+04
-2.860915638039999976e+04
-2.860894583730000159e+04
-2.860886512360000052e+04
-2.860861021869999968e+04
-2.860834596410000086e+04
-2.860847423020000133e+04
-2.860851993230000153e+04
-2.860813439830000061e+04
-2.860800005400000009e+04
-2.860791083290000097e+04
-2.860816095259999929e+04
-2.860827762499999881e+04
-2.860866876160000174e+04
-2.860835556569999972e+04
