-8.068918939000000595e-03 -1.345152698900000006e-02 1.211755619999999950e-04 -4.082693283799999906e-02 -5.760600202000000329e-03 1.254745514999999929e-03 5.628933491899999753e-02 1.158916605800000034e-02 5.972937689099999670e-02 -5.646596320999999752e-02 5.393404293899999730e-02 -2.761003786999999959e-02 9.701783064000000026e-03 -7.236400607000000040e-02 1.356492526000000007e-03 5.957471893300000237e-02 -1.445432157499999988e-02 3.368707170699999920e-02 1.936296705199999982e-02 4.164388620000000069e-02 1.881110750700000153e-02 2.084302419000000003e-02 8.404654513999999799e-03 3.430664934500000235e-02 -1.233744749559999992e-01 3.732590203700000137e-02 1.698423316200000088e-01 3.568671033399999776e-02 -6.766023185399999695e-02 -2.694910242049999849e-01 -3.721852237999999802e-03 -1.098254872450000058e-01 -1.309373338020000110e-01 -4.639288176399999908e-02 3.641052335100000009e-02 1.240088751650000043e-01 1.069541974199999940e-01 2.640087598300000157e-02 9.657080431700000578e-02 -5.873538637399999818e-02 -1.172368030790000015e-01 -6.642908497799999978e-02 2.345221680999999905e-02 4.742095604299999961e-02 1.956429816320000015e-01 -1.996439163999999891e-02 1.311682649570000136e-01 -1.715445702869999867e-01 3.880206824400000282e-02 -9.033156059300000151e-02 -2.230028708199999904e-02 9.394448664500000545e-02 3.037941246699999917e-02 -7.046481576999999441e-02 1.477740168100000022e-02 -2.495590261800000043e-02 4.938345440000000211e-03 -1.050316402360000068e-01 -5.521849015000000055e-02 6.824065462299999663e-02 -9.295893649099999656e-02 3.845943127999999767e-02 -7.401551148700000193e-02 -2.000200942689999983e-01 -1.203275893299999948e-02 3.995496823900000077e-02 3.643162078500000040e-02 -2.151829024999999968e-03 1.826432308600000123e-02 -7.982172973999999976e-02 -3.833943770499999987e-02 -1.235229777099999988e-02 -3.190265763399999926e-02 -2.848743446999999884e-03 -1.953146255599999895e-02 -1.069336679000000047e-03 1.475422074889999879e-01 -7.032138853699999859e-02 3.162891417299999730e-02 -1.587470660979999892e-01 -3.160714896599999685e-02 7.797215223999999500e-02 -2.022117169110000112e-01 4.526218235599999834e-02 -1.110567823800000069e-02 1.738695514870000070e-01 -7.888586121200000245e-02 4.423822122200000290e-02 3.565195951100000316e-02 7.636169800799999519e-02 3.074333110000000268e-04 2.287828961499999841e-02 -1.247736508850000037e-01 1.451282078539999909e-01 5.278115687599999745e-02 -4.848134680700000310e-02 -4.960110445500000298e-02 5.185302155999999690e-02 -1.761403787899999962e-01 6.167176667899999798e-02 8.047593873300000478e-02 2.120900940819999969e-01 8.346957888000000256e-03 1.088039465400000017e-01 1.179425581230000020e-01 -4.970741291000000013e-03 5.600965555999999797e-03 -5.364206982099999771e-02 4.487699745999999823e-02 -2.874897503400000026e-02 5.913230562400000057e-02 -2.104711513000000114e-03 -6.590227109999999711e-04 1.645471218710000127e-01 -2.197350426199999943e-02 -8.727997341399999776e-02 -4.505088658899999987e-02 2.811975586499999846e-02 -3.831569954100000341e-02 -4.848670582499999687e-02
-2.708502778400000144e-02 -1.967599727799999865e-02 -6.998037425200000217e-02 -2.021537502590000090e-01 -1.303600878800000029e-02 -1.120769043770000056e-01 3.337214104819999916e-01 -7.910759100999999877e-03 2.485213453869999922e-01 -3.154166362240000132e-01 3.014113776940000045e-01 -2.756724590540000075e-01 1.954941480000000134e-02 -3.594888026979999873e-01 -3.932904981799999894e-02 2.939561530070000095e-01 -7.617462221899999608e-02 5.976758559800000176e-02 9.174852534699999562e-02 1.676020273250000137e-01 5.067881913499999724e-02 1.033499072649999989e-01 2.322392352300000143e-02 1.057213996529999950e-01 -6.423162532389999901e-01 1.891303227109999985e-01 6.269560685449999671e-01 1.950855762900000068e-01 -4.326733524999999969e-01 -1.187434396288000071e+00 -1.827406176699999940e-02 -5.584564155900000326e-01 -5.034636092780000460e-01 -2.729663108650000058e-01 4.281049012159999778e-01 5.806904981860000481e-01 5.640117932499999487e-01 1.576737443439999997e-01 5.185700323170000514e-01 -3.223755114690000090e-01 -5.824962128320000376e-01 -1.544058825580000016e-01 1.092871358520000058e-01 2.125537287060000058e-01 1.004235286629000079e+00 -7.441242303700000560e-02 6.404640826140000076e-01 -7.961882051359999712e-01 3.760505715799999926e-02 -5.397349482180000546e-01 -2.236238834300000033e-02 3.571088327260000250e-01 1.458133016089999956e-01 -2.938746186949999784e-01 1.109766030530000003e-01 -1.158781264879999995e-01 1.190724269050000006e-01 -4.583131694720000149e-01 -3.011352655380000187e-01 4.814431686069999827e-01 -3.247693410499999933e-01 1.841589125810000060e-01 -2.180245743010000015e-01 -8.293803041649999708e-01 -1.131502382050000033e-01 2.857613105349999794e-01 1.520155526910000054e-01 1.961927328799999842e-02 1.887514221590000096e-01 -4.741135035310000134e-01 -1.954044933580000032e-01 3.166045194000000063e-02 -1.681312581530000072e-01 -2.112528376939999952e-01 1.549833928599999959e-02 -3.930676424099999872e-02 6.294292926260000032e-01 -3.214679820829999812e-01 1.693672406099999972e-01 -5.911123195780000339e-01 -9.571324035000000272e-03 4.660567850610000118e-01 -1.073641773567000079e+00 3.190083345479999832e-01 -8.529269258900000483e-02 8.919217331200000043e-01 -3.408717824909999750e-01 2.194504379639999891e-01 2.266973483420000046e-01 4.999191221559999843e-01 5.399334636800000309e-02 2.039479725259999987e-01 -6.219348144070000473e-01 7.996086077420000437e-01 2.110895630740000084e-01 -2.299163523949999954e-01 -3.368451074939999845e-01 3.244488171989999836e-01 -7.423767318920000413e-01 3.232777244350000245e-01 4.344236163920000005e-01 8.396407515860000448e-01 3.123571229199999938e-02 6.084818695000000499e-01 3.252104712169999745e-01 -4.576011473199999985e-02 2.126308105599999942e-02 -3.453942627770000273e-01 2.514282542460000158e-01 -1.748536869750000056e-01 2.250065101800000078e-01 -7.620165853999999982e-03 2.438081687299999828e-02 4.813766791080000274e-01 -1.488781151499999900e-01 -4.767085306270000267e-01 -2.716145090170000165e-01 1.105764404370000037e-01 -2.030553150680000085e-01 -4.515298024769999752e-01
-1.029054979999999937e-03 1.680777168049999992e-01 -9.568358418700000090e-02 -2.301881042360000018e-01 5.006677584299999706e-02 -2.983847757199999950e-01 5.959089562910000470e-01 -2.156181829920000015e-01 3.108472561660000077e-01 -4.711425091459999770e-01 4.853126964239999896e-01 -4.334984890610000252e-01 -4.713871722699999878e-02 -4.244352121639999864e-01 7.173602024700000135e-02 3.564291056139999858e-01 -6.443418270700000672e-02 -7.020345812099999805e-02 1.356384153369999956e-01 8.230388151400000463e-02 6.131729641400000125e-02 8.679205192399999658e-02 -3.014922378199999878e-02 1.956123186700000072e-01 -8.807153477600000446e-01 2.149962168610000113e-01 1.069515394039999984e-01 2.261878486929999876e-01 -2.371137821700000092e-01 -5.827998955619999588e-01 1.515161061600000039e-02 -6.530142797529999710e-01 -3.008543134480000103e-01 -4.090235737419999906e-01 4.068250985840000111e-01 5.120728290360000434e-01 7.306881812869999715e-01 1.971287222329999866e-01 5.305044288779999784e-01 -3.342495418440000199e-01 -6.827130985170000166e-01 1.193421569739999966e-01 1.029688875880000049e-01 2.409204691930000031e-01 1.173088694240000063e+00 -1.573766168399999901e-02 6.712669243629999505e-01 -8.866446986720000201e-01 -2.731467670730000075e-01 -7.722201756359999836e-01 6.102211641299999656e-02 5.999239637400000102e-02 1.184676667420000024e-01 -4.216571727160000060e-01 1.148830650120000046e-01 -1.597356761050000018e-01 2.523234692040000060e-01 -4.126574114589999787e-01 -3.992961441310000081e-01 6.664773777429999768e-01 -6.079411842699999902e-02 2.762498030850000230e-01 -1.035809704679999943e-01 -5.171195159529999863e-01 -2.119911557209999964e-01 3.252508205369999961e-01 2.334388642980000095e-01 2.623067843500000162e-02 3.134224945599999868e-01 -6.870051329390000072e-01 -2.212973889790000037e-01 -1.016740024599999993e-02 -2.561779289730000131e-01 -7.806993273400000266e-01 5.095211600099999738e-02 -1.668441714309999990e-01 2.786819521150000201e-01 -4.784973600810000227e-01 1.911655547860000026e-01 -2.711309937899999967e-01 9.385203978299999639e-02 6.253746058479999759e-01 -8.578421464040000277e-01 4.213690112230000229e-01 -1.328407469890000026e-01 8.484554136919999490e-01 -3.819505707190000154e-01 2.746002111909999766e-01 3.678530710089999989e-01 6.393358228790000375e-01 1.483908113780000038e-01 4.670769941560000138e-01 -8.016380018550000042e-01 1.060859968319000091e+00 7.706383769199999512e-02 -4.265550229169999819e-01 -4.895286978749999740e-01 4.278428739049999763e-01 -4.730101368849999877e-01 3.904339561819999971e-01 5.049299679030000432e-01 3.202530524489999864e-01 -1.919448605300000041e-02 7.774785620170000522e-01 1.591003996149999988e-01 -1.142231441860000057e-01 7.628812079400000556e-02 -2.885545429370000026e-01 3.118075771170000232e-01 -1.982711908310000049e-01 5.212825491949999446e-01 1.324263299200000021e-02 1.326074889770000043e-01 7.320940466000000479e-02 -2.430043223389999896e-01 -5.155546940130000255e-01 -2.124860679189999879e-01 8.780625346699999501e-02 -2.006080773099999937e-01 -7.131567527740000356e-01
3.813814744000000069e-03 4.075925470050000277e-01 -1.352633985900000002e-01 -1.423784508220000133e-01 1.332747572890000121e-01 -4.454364694929999757e-01 7.606086564930000238e-01 -4.563872088559999818e-01 1.835178219370000030e-01 -5.279839846530000047e-01 6.354445672549999813e-01 -3.440942809829999893e-01 -1.289390263450000129e-01 -3.852556592799999957e-01 2.836020905009999926e-01 2.652911720269999774e-01 2.636174464899999903e-02 -2.723991666839999937e-01 2.508317108129999862e-01 -6.987364275999999319e-02 -4.773723198899999798e-02 -1.680993408800000172e-02 -1.382507030219999877e-01 3.517153572789999960e-01 -7.198077057249999688e-01 -3.406654164200000057e-02 -9.456391153159999785e-01 -5.963411841099999777e-02 8.014306802230000137e-01 4.976663377069999727e-01 7.882698260899999310e-02 -3.474009031799999980e-01 2.417217560369999962e-01 -3.691516317169999950e-01 -2.088385130039999982e-01 2.609774840299999843e-02 5.403188117349999597e-01 2.135638194860000061e-01 3.906568301719999803e-01 4.729646454099999814e-02 -3.911244042400000009e-01 3.209633514190000092e-01 1.491781805699999956e-02 4.861557306300000325e-02 6.128426926090000393e-01 8.804505475099999590e-02 1.939496975270000034e-01 -5.082379971710000444e-01 -4.155547368170000033e-01 -6.722766797310000264e-01 1.526998212110000086e-01 -3.279202407139999997e-01 -5.318130363600000188e-02 -3.416048480069999727e-01 -1.060901629120000050e-01 -1.532410517109999981e-01 2.963773883820000066e-01 -1.817582693099999980e-01 -3.565470752700000134e-01 5.172795532260000551e-01 1.935757411279999951e-01 2.297162664830000034e-01 2.335513601139999895e-01 3.962355313900000064e-01 -2.441624966350000037e-01 1.298134975190000096e-01 2.966624828100000166e-01 1.271499876299999991e-02 3.302154050089999848e-01 -4.604129998159999793e-01 -1.034019085150000017e-01 -1.310341550080000028e-01 -2.071128983109999933e-01 -8.958483578610000331e-01 5.797295924899999869e-02 -3.008625362730000252e-01 -7.620645209230000328e-01 -5.080513634000000112e-01 1.885212436599999902e-02 3.070460873849999994e-01 2.250597044169999894e-01 5.306675553790000111e-01 2.175612755909999974e-01 2.704656613940000232e-01 -1.225645111489999939e-01 1.400782471099999982e-01 -2.394519693449999875e-01 1.258176311460000030e-01 1.977196144910000064e-01 4.608795123950000239e-01 3.090996116060000243e-01 5.380258544989999780e-01 -6.177911481109999992e-01 7.709498456679999556e-01 -8.666189881199999612e-02 -5.925398554580000310e-01 -4.819674295199999903e-01 2.509966504100000217e-01 1.951100586070000087e-01 2.031027240559999947e-01 1.901336982550000110e-01 -4.419493053979999808e-01 -1.396009974109999885e-01 5.753681903549999754e-01 -5.113167296199999656e-02 -1.737560081160000047e-01 1.596838916030000055e-01 1.441684651169999887e-01 2.026237082519999899e-01 -3.899827503500000181e-02 4.981545408440000156e-01 4.549018119099999813e-02 2.597090231060000254e-01 -3.702263143819999880e-01 -2.390483464610000108e-01 -1.563567255589999871e-01 9.300530379200000475e-02 -2.167363418900000033e-02 1.495068512200000040e-02 -5.209489250450000108e-01
-8.948644290299999360e-02 4.066018191410000204e-01 -2.627360820599999869e-01 -1.367048853500000063e-02 1.363596311389999871e-01 -4.299950779039999893e-01 7.433712969010000116e-01 -4.759311716549999849e-01 -4.660107824899999834e-02 -5.957149576660000223e-01 8.182085418410000033e-01 -7.182554367799999506e-02 -1.462750056450000113e-01 -4.600357778429999822e-01 4.227192482700000142e-01 1.003794614179999989e-01 1.241244792319999984e-01 -3.688282316450000042e-01 5.071692748060000477e-01 -3.575061922100000039e-02 -2.361144686180000063e-01 -1.216493513770000034e-01 -2.622953634130000267e-01 5.396139253030000082e-01 -2.027717528809999947e-01 -3.004496037639999839e-01 -1.359187397791000063e+00 -4.468377993239999735e-01 1.310711965392000078e+00 7.275687480169999999e-01 5.144720636999999819e-02 -1.895198046359999888e-01 6.731833159800000299e-01 -1.846596393190000074e-01 -3.070319348250000191e-01 -4.076903186320000039e-01 -1.026209412939999982e-01 2.824649786930000239e-01 3.539913950349999894e-01 4.925053226350000202e-01 1.777523822419999899e-01 2.065457453229999907e-01 -7.773542040000000096e-04 -1.446307590079999872e-01 -3.110885646029999951e-01 1.797705359510000100e-01 -5.016066075809999525e-01 -1.443587388129999871e-01 1.606823991659999951e-01 -2.910009217580000196e-01 1.036957509549999989e-01 -5.399100387800000178e-02 -2.281828657030000040e-01 -6.247804302300000168e-02 -3.718318589719999956e-01 -1.215884094850000069e-01 2.514100227900000206e-01 1.013070704120000026e-01 -1.868811142700000094e-01 5.629253849299999807e-02 -4.946616476799999690e-02 1.152162232249999974e-01 5.077434967659999465e-01 8.634541337109999937e-01 -2.678933952249999972e-01 -1.147702408760000042e-01 1.984323113199999988e-01 1.878767680200000081e-02 2.550977946610000213e-01 1.054859375820000056e-01 7.806954098000000106e-03 -2.084793084319999934e-01 1.250843974500000060e-02 1.102865182949999967e-01 -4.071104858099999779e-02 -3.611480447179999942e-01 -8.843073861860000218e-01 -3.129990522050000168e-01 -2.230989990480000129e-01 4.040683983650000255e-01 2.560521458469999789e-01 1.896521526030000016e-01 6.944228604169999652e-01 -2.642107665299999950e-02 -1.037919301339999961e-01 -6.236273411089999774e-01 -3.078194185600000021e-02 -8.697516534900000262e-02 -3.499530315000000114e-01 6.805973126200000334e-02 4.280779928219999864e-01 1.223209837060000027e-01 -1.839861343180000108e-01 1.440544812000000008e-01 -6.597105808400000049e-02 -6.183182586650000090e-01 -3.342447357459999990e-01 -4.530000429699999887e-02 3.924624647239999820e-01 -1.403664729380000031e-01 -2.793544503779999966e-01 -4.797136836970000151e-01 -2.363535165469999866e-01 4.922372362900000187e-02 -7.421121008900000149e-02 -1.715822167490000105e-01 1.525624310039999931e-01 6.718636474770000033e-01 1.870097510900000162e-02 1.471880611749999956e-01 -1.190595584479999941e-01 7.427675314999999945e-02 3.555026818850000048e-01 -2.234142073100000014e-01 -1.258486404660000002e-01 3.390904051479999848e-01 5.955398844599999464e-01 -2.081132624410000076e-01 2.486109045090000025e-01 5.192941078399999910e-02
-2.431929720690000074e-01 1.390607889519999973e-01 -4.181190358599999879e-01 9.444682242900000191e-02 6.907508077700000304e-02 -3.538284138059999973e-01 6.343938930269999998e-01 -2.417397319350000073e-01 -2.217294768109999981e-01 -6.982250804859999604e-01 1.023459653650000023e+00 1.281647928899999900e-01 -9.226754990699999326e-02 -6.620645041239999751e-01 4.378927196110000142e-01 -6.636090392500000601e-02 1.953434682919999998e-01 -3.228807836959999844e-01 7.968114169190000373e-01 2.157178135720000112e-01 -3.575337431580000169e-01 -1.951386036770000054e-01 -3.728168019679999889e-01 6.932590397900000312e-01 1.863475486539999948e-01 -3.591562496749999833e-01 -4.664553614020000016e-01 -4.218003461270000143e-01 4.882132916959999736e-01 3.002384444400000088e-02 -1.515049011319999916e-01 -4.150368469719999953e-01 7.112723487350000040e-01 -1.217539468100000029e-02 4.619888541280000038e-01 -1.923753161639999987e-01 -9.085789274729999532e-01 1.031753384709999943e-01 3.279987757819999850e-01 5.978861618009999601e-01 6.052057945700000108e-01 -2.381093819000000122e-03 2.310779908320000076e-01 1.318493280589999872e-01 -6.331574368879999692e-01 2.083293623190000110e-01 -9.168779766569999934e-01 -1.199763619819999988e-01 9.214206020099999783e-01 1.469571266830000111e-01 -8.257217423899999853e-02 6.084942895239999761e-01 -2.798297034380000103e-01 3.080093388039999991e-01 -3.374607281679999904e-01 -1.253294131100000063e-02 1.632604780499999908e-01 5.252532174920000463e-01 -2.564715485799999931e-02 -3.685959770869999819e-01 -2.923046478540000104e-01 1.892587833299999925e-02 4.685025109889999761e-01 3.599120517689999854e-01 -2.513897531529999951e-01 -2.396305437619999923e-01 -2.227321803089999941e-01 -3.333444781099999948e-02 1.387693661730000083e-01 5.519736364780000182e-01 3.533754276999999822e-03 -1.388841838569999931e-01 2.167828148650000064e-01 1.409175648189000096e+00 -2.029500946580000131e-01 -2.359915197580000068e-01 4.141269455330000016e-01 1.382592566899999986e-01 -3.579995238640000244e-01 6.105596894499999705e-02 5.293729228400000097e-02 -1.705767873060000106e-01 1.106500155890000059e-01 -2.318654157110000003e-01 -1.319103348200000025e-01 -7.058449858259999710e-01 1.216761344099999975e-01 -1.522766938829999972e-01 -6.344869028159999536e-01 -2.845224664589999786e-01 3.432293748520000021e-01 -6.952580832039999548e-01 2.696149598550000026e-01 -4.713372000320000255e-01 -9.970356663299999311e-02 -3.843010730870000113e-01 -3.257845151199999928e-02 -2.080406614180000113e-01 -1.148523896789999943e-01 -3.736524888280000067e-01 -5.151025912040000376e-01 -9.044302408300000651e-02 -2.332557841990000047e-01 -5.509063467229999844e-01 4.007045986999999837e-02 -6.056606167499999777e-02 3.742721581999999911e-03 5.591840859700000221e-01 -1.260306507779999918e-01 1.939624865890000049e-01 -8.645633538929999862e-01 9.546352469100000127e-02 3.705917143940000158e-01 2.310610667299999865e-01 -2.903987915000000048e-03 5.741216677539999758e-01 5.924789690830000177e-01 -3.810009872849999812e-01 2.398359096919999989e-01 6.791822799410000000e-01
-3.494750951680000162e-01 -8.594418623499999743e-02 -4.443857333389999997e-01 1.870985208160000079e-01 7.636690278799999898e-02 -3.979142433139999935e-01 6.389841902230000148e-01 -1.989738158300000115e-02 -2.200376348629999868e-01 -6.843271782209999765e-01 1.096721323079999921e+00 1.030160430899999952e-01 -3.814908434599999926e-02 -7.965309798070000502e-01 4.458679816369999771e-01 -2.224597234900000109e-01 2.691552097650000142e-01 -2.485719832540000118e-01 9.362450485769999720e-01 4.159171789139999853e-01 -3.173657134010000047e-01 -2.981915616110000222e-01 -4.768039883810000212e-01 7.432249028920000500e-01 -6.177742953600000309e-02 -6.040718569720000541e-01 7.009532964989999559e-01 -2.630393639320000032e-01 -3.160955007349999790e-01 -8.210757039870000273e-01 -3.731702729620000047e-01 4.092047214700000185e-02 4.397903686999999895e-01 1.387358238209999983e-01 1.236437668056999950e+00 3.109064772979999725e-01 -7.682148880169999972e-01 -2.193975012940000135e-01 6.838971401799999461e-02 4.184439295469999931e-01 4.559808531690000000e-01 7.733509427500000200e-02 4.329214127739999807e-01 4.181927890639999812e-01 -2.773180158169999965e-01 1.404879384970000034e-01 -7.710650123710000026e-01 4.060749200000000197e-02 4.290301667490000193e-01 4.342365940440000016e-01 -2.292489710479999887e-01 6.331804235589999497e-01 -1.684421022279999902e-01 5.608190054939999891e-01 -4.527694387999999827e-03 1.886878471060000062e-01 9.691113141099999551e-02 6.878832983999999540e-01 2.591821709399999910e-02 -4.928896865779999747e-01 1.424705191339999955e-01 -3.330564655999999901e-02 1.174334288640000029e-01 -1.970108995360000115e-01 -1.290920932999999882e-01 -2.318607095090000070e-01 -6.300284766649999479e-01 -2.135996298030000129e-01 4.486919592500000081e-02 4.824053346819999755e-01 -4.367410969399999898e-02 7.298338314900000567e-02 3.523651954820000154e-01 1.023942294562999900e+00 -1.634724715289999908e-01 4.917518355299999727e-02 1.035997354627000044e+00 5.187252790209999631e-01 -3.019333787979999739e-01 1.083781595479999943e-01 -2.621498262329999829e-01 -3.424715210509999830e-01 -4.355702579460000168e-01 -2.650891228750000272e-01 -1.185011830700000018e-01 -1.799932045669999925e-01 2.079334910089999933e-01 6.366560258999999673e-03 -1.864176939549999912e-01 -4.959080976870000046e-01 6.123118694199999879e-02 -9.894715916899999852e-01 7.159520803140000389e-01 -7.530401509869999455e-01 -3.164860244989999849e-01 1.532091302299999971e-02 2.938418061399999948e-01 -2.103351290230000004e-01 -3.415275490299999883e-01 -3.056355896969999986e-01 -3.696898833060000000e-01 2.282557579170000073e-01 -1.415597597630000037e-01 -8.334138911439999964e-01 1.064252570469999964e-01 1.352076341369999879e-01 -1.670064976410000068e-01 -1.128415425420000034e-01 -1.176782112329999991e-01 8.165657516900000357e-02 -9.737009400480000076e-01 8.032435610799999737e-02 1.975503996899999892e-01 1.665649568049999973e-01 7.895637488399999404e-02 5.430403349669999935e-01 -8.013866994799999366e-02 -3.541634418180000243e-01 -8.279601105799999639e-02 5.932113646150000141e-01
-3.734956833920000108e-01 -6.896799940299999654e-02 -3.514835258269999874e-01 2.462803581989999879e-01 2.077465069999999969e-01 -5.217177626340000485e-01 8.211811383260000374e-01 8.336325626000000433e-03 -4.940200860499999874e-02 -4.940532857350000140e-01 9.857092370750000221e-01 -7.770479488100000276e-02 -4.215163486699999990e-02 -7.215798389899999998e-01 4.837799647530000025e-01 -3.328971871770000091e-01 3.502082342310000040e-01 -2.210986232240000071e-01 8.572533253680000298e-01 3.870490019889999966e-01 -1.534133325800000058e-01 -4.717423528040000091e-01 -5.671891953750000104e-01 6.318053241859999947e-01 -4.458469435579999751e-01 -7.727028041689999460e-01 1.185010287399000051e+00 -1.227894720750000029e-01 -4.879936797930000125e-01 -8.794753711039999811e-01 -2.141907627230000000e-01 4.413608813550000121e-01 1.297945017129999989e-01 3.081785234680000096e-01 9.547235392940000009e-01 5.056682237630000243e-01 -1.895705483229999933e-01 -1.192410076170000027e-01 -6.385103545210000231e-01 6.463583426000000208e-03 4.353631471700000061e-02 4.212400959340000250e-01 1.941319335120000045e-01 2.441980451890000126e-01 -9.012033243400000004e-02 -1.099629818430000044e-01 -1.968598895820000139e-01 3.454301532669999952e-01 -6.497764001550000446e-01 4.694753805499999877e-01 -2.725290341289999807e-01 -2.062595720160000090e-01 7.537299399400000655e-02 4.600576892220000214e-01 1.540683166360000134e-01 4.173987565119999799e-01 2.987294716899999841e-02 2.171665995769999913e-01 2.932682597399999952e-02 -3.478777517669999764e-01 6.740491721479999754e-01 -3.050214540599999885e-02 -2.870456097060000156e-01 -1.333743777839999922e-01 4.509127952900000152e-02 -1.949573089870000053e-01 -5.321171036840000035e-01 -4.166759906609999731e-01 2.498735625400000035e-02 2.231744855420000062e-01 -2.094884174600000065e-02 2.671844296829999910e-01 3.511427153410000002e-01 -3.618692036630000164e-01 4.203132965899999962e-02 4.116632818279999939e-01 3.686768991089999781e-01 5.960435494089999509e-01 -1.562925501300000131e-01 3.871165360620000273e-01 -4.700332906310000225e-01 -3.210919204700000140e-01 -3.959285269999999893e-04 -1.713631232280000138e-01 -4.836519521000000148e-03 6.317908244900000136e-02 2.072243110520000098e-01 3.122665754789999970e-01 3.260500521549999919e-01 -4.895916233479999935e-01 -2.440988454620000025e-01 -2.777554357609999802e-01 1.049202917753000008e+00 -6.600121361999999881e-01 -3.475048158349999805e-01 3.861062272410000218e-01 5.070664031039999742e-01 -1.258026821240000037e-01 -4.912342191900000155e-02 1.642680149599999931e-02 -3.074037673300000079e-02 1.564465632200000011e-01 -3.920321402799999827e-02 -6.060746290070000430e-01 1.297967401029999912e-01 2.614135170920000029e-01 -1.578273055859999996e-01 -6.360176531150000256e-01 2.762898261600000085e-02 -8.592907176800000657e-02 -2.252262060800000118e-02 4.076528458999999910e-02 -1.560256911039999972e-01 -4.783208440330000144e-01 1.868720633160000089e-01 2.999461197419999725e-01 -5.741106129980000361e-01 -7.342956911600000136e-02 -5.519154797030000337e-01 -7.526361149900000214e-02
-3.530490635810000222e-01 3.426969646099999739e-02 -2.840144230480000087e-01 1.736931048339999950e-01 3.170051635089999875e-01 -5.419926274040000047e-01 1.028624935787999961e+00 -3.925549802500000185e-02 1.691453547239999966e-01 -3.487010089059999762e-01 8.447015712100000018e-01 -2.101085428570000080e-01 -8.032580653599999398e-02 -5.291302214280000360e-01 4.608605752480000040e-01 -2.791098198340000169e-01 3.797908819149999893e-01 -1.844592339410000004e-01 6.462348231250000241e-01 2.216804368159999983e-01 1.460999571599999949e-02 -5.978597840930000018e-01 -6.117021321229999531e-01 4.570737456569999857e-01 -1.911081961870000068e-01 -4.309525113379999994e-01 8.966598560290000020e-01 2.313358709159999971e-01 -4.848955098100000277e-02 -1.500144834029999985e-01 3.428608037549999987e-01 -5.937788615999999714e-02 3.257832487199999877e-02 4.802843034379999931e-01 6.868526469499999787e-02 4.462934741380000236e-01 -1.793174923239999885e-01 2.612466371330000037e-01 -1.298282920511000027e+00 -5.446874908240000313e-01 -3.244999882219999909e-01 3.105420507059999946e-01 -2.392147029289999893e-01 4.457417518400000334e-02 5.442331586000000165e-02 -5.496463419579999954e-01 4.007339259430000022e-01 3.369982063679999862e-01 -7.580796053230000053e-01 3.173158384049999947e-01 -2.389201566270000021e-01 -8.414787233560000468e-01 3.477504919419999729e-01 7.944179116400000573e-02 7.975847697400000047e-02 5.562656490740000015e-01 -2.112369390369999989e-01 -5.549002351320000415e-01 5.774155156099999853e-02 -1.389470093069999912e-01 2.813371865570000185e-01 1.629504691999999989e-03 -5.735064219679999464e-01 -5.168433662000000012e-02 1.894350060789999901e-01 -1.137526963439999955e-01 -1.356751152850000086e-01 -3.903067116669999836e-01 -8.576981733199999514e-02 1.121245407339999944e-01 8.390953268799999920e-02 3.286152415690000161e-01 1.838602245260000101e-01 -1.048343802136999958e+00 2.422704987139999988e-01 5.782518377349999961e-01 -8.089959249139999642e-01 3.002502624949999754e-01 -2.243559398300000104e-02 1.086161741969999955e-01 -4.733233922749999767e-01 -2.019755304939999940e-01 5.016977192499999516e-01 -4.230910036899999949e-02 1.016152615030000012e-01 -7.523092597800000447e-02 4.151772172499999802e-02 5.242084807069999908e-01 2.513991524090000151e-01 -2.117151028639999988e-01 -3.565171414630000091e-01 6.302188706039999477e-01 9.256094281740000485e-01 -2.966454003849999799e-01 1.124874076790000066e-01 5.827831192960000184e-01 4.212257969629999987e-01 -3.750490157699999660e-02 2.813991753110000049e-01 3.326006301689999889e-01 2.739162890180000254e-01 -7.979498116199999769e-02 9.281892658099999416e-02 -4.763386548100000117e-02 8.575200315000000573e-02 2.037380230949999982e-01 5.191245145199999828e-02 -8.097605210899999628e-01 1.863811777419999982e-01 -2.350000854679999973e-01 1.217205535671000094e+00 -1.973038498699999921e-02 -4.939520042930000132e-01 -5.641390438200000190e-01 2.564875942479999948e-01 -9.106567120300000651e-02 -5.441228071270000077e-01 3.446997748100000258e-01 -7.855417109219999805e-01 -5.078594561010000286e-01