-2.711640548876056211e+00 -4.946128748548767886e-05 6.535619157609286189e-02 -4.946128748548767886e-05 -2.482830449399449524e+00 -2.161256380755856993e-02 6.535619157609286189e-02 -2.161256380755856993e-02 -3.322612978385523164e+00
-2.143602877681383134e+00 8.316673752308404929e-03 3.722485900135478754e-01 8.316673752308404929e-03 -5.406539964489672778e-01 -1.207070697582578733e-01 3.722485900135478754e-01 -1.207070697582578733e-01 -2.915313280595561274e+00
-1.291773149954216660e+00 -8.804067403717318052e-02 4.806747112833796853e-01 -8.804067403717318052e-02 1.244792190909354668e+00 -1.280775588958810440e-01 4.806747112833796853e-01 -1.280775588958810440e-01 -2.819660677240305890e+00
3.825715185189701439e-02 -2.891028464900607942e-01 3.689434531807013196e-01 -2.891028464900607942e-01 3.391482389771447892e+00 -1.928668017517514710e-01 3.689434531807013196e-01 -1.928668017517514710e-01 -1.867297847201240701e+00
2.782893867461849968e+00 -1.441952657375920044e-01 2.752746471087004210e-01 -1.441952657375920044e-01 6.901344689585654280e+00 -4.179641930483204426e-01 2.752746471087004210e-01 -4.179641930483204426e-01 5.136560489116265282e-01
5.274991482580526636e+00 1.547354775450755782e-01 2.522548282277705112e-01 1.547354775450755782e-01 9.137527253792434578e+00 -8.146175771002431842e-01 2.522548282277705112e-01 -8.146175771002431842e-01 6.196825839693683724e-01
4.124811286806478350e+00 1.419920754757424963e-01 3.563431539799043479e-01 1.419920754757424963e-01 6.365876474996610135e+00 -1.305930970625562626e+00 3.563431539799043479e-01 -1.305930970625562626e+00 -3.358189180187669098e+00
3.694629618905015955e-01 2.856986733435946599e-02 7.150564106014672960e-01 2.856986733435946599e-02 2.080782036841320182e-01 -1.496741979468128925e+00 7.150564106014672960e-01 -1.496741979468128925e+00 -7.768429682380318724e+00
-2.555915391267439940e+00 -2.247093949076959044e-02 1.020887996357226601e+00 -2.247093949076959044e-02 -3.700290790134644681e+00 -1.251496850919590509e+00 1.020887996357226601e+00 -1.251496850919590509e+00 -8.828757148353169271e+00
-3.758384686899104654e+00 -7.317713849258693226e-02 9.915223488522998396e-01 -7.317713849258693226e-02 -5.025133589799566813e+00 -1.016257955433553128e+00 9.915223488522998396e-01 -1.016257955433553128e+00 -7.804529661332844093e+00
-3.596543288202640909e+00 -8.531337932421635684e-02 5.636365835104346633e-01 -8.531337932421635684e-02 -4.933358988170171600e+00 -8.642019298008553063e-01 5.636365835104346633e-01 -8.642019298008553063e-01 -5.438284924772347040e+00
-2.299046855247814047e+00 3.563252549804521181e-03 1.030076672318956249e-01 3.563252549804521181e-03 -3.086840643216847813e+00 -8.685764600626231235e-01 1.030076672318956249e-01 -8.685764600626231235e-01 -2.648594846626900701e+00
-6.481012913152635058e-01 -1.045969648652608497e-01 -6.927181479810308809e-03 -1.045969648652608497e-01 -1.138722814941713762e-01 -9.300616615541731358e-01 -6.927181479810308809e-03 -9.300616615541731358e-01 -4.176760591091740471e-01
-9.242798717715547951e-01 -4.680171154476153172e-01 4.683384755145823530e-01 -4.680171154476153172e-01 2.843909432930177061e+00 -7.940682201392662565e-01 4.683384755145823530e-01 -7.940682201392662565e-01 -1.780896105932745277e+00
-1.549098526868622816e+00 -4.938518938149530357e-01 1.161297205172312941e+00 -4.938518938149530357e-01 3.632940700897897557e+00 -1.692738427675546942e-01 1.161297205172312941e+00 -1.692738427675546942e-01 -4.789082615002357102e+00
3.066280210436712061e-01 4.495880831827537422e-02 1.554482076498808985e+00 4.495880831827537422e-02 6.549117864547938872e+00 6.519282345554950897e-01 1.554482076498808985e+00 6.519282345554950897e-01 -4.398780083133238428e+00
3.086630177855634649e+00 -9.685856414597328323e-02 1.544356934538285930e+00 -9.685856414597328323e-02 8.606512072241089939e+00 6.270659928435881048e-01 1.544356934538285930e+00 6.270659928435881048e-01 -1.656876635468193859e+00
5.554626878863068384e+00 -4.666764561002842426e-01 9.416429824050271957e-01 -4.666764561002842426e-01 6.990483315630426908e+00 -6.850567037200175347e-02 9.416429824050271957e-01 -6.850567037200175347e-02 -2.293951864182577349e-01
5.565224193002528352e+00 -6.007574018885269290e-02 7.021437381008184542e-02 -6.007574018885269290e-02 5.624327470223903447e+00 -8.350443506397262627e-01 7.021437381008184542e-02 -8.350443506397262627e-01 -1.668381704050271308e+00
4.042795238959068449e+00 3.686915384362078330e-01 -3.359286833701167763e-01 3.686915384362078330e-01 6.296481044795767978e+00 -5.589836576615210273e-01 -3.359286833701167763e-01 -5.589836576615210273e-01 -5.916388295173512724e+00
-1.166429886258627258e-01 1.208247081834521036e-01 -1.578536567687254533e-01 1.208247081834521036e-01 2.101907962017258047e+00 1.829301454629988499e-01 -1.578536567687254533e-01 1.829301454629988499e-01 -1.034091822437435404e+01
-3.601068997448860110e+00 -6.090769481166301569e-01 2.731238984185289098e-01 -6.090769481166301569e-01 -8.733279278097585419e-01 1.097703598382002488e+00 2.731238984185289098e-01 1.097703598382002488e+00 -1.158102104860083159e+01
-4.380865457823110987e+00 -1.047348705713994077e+00 3.867555176072133838e-01 -1.047348705713994077e+00 1.347767849836092602e-01 1.367180880304834867e+00 3.867555176072133838e-01 1.367180880304834867e+00 -8.133845282792698583e+00
-2.892412713970987870e+00 -7.953131054667215150e-01 9.271819921967515421e-02 -7.953131054667215150e-01 2.357560645871752403e+00 4.591109514058314134e-01 9.271819921967515421e-02 4.591109514058314134e-01 -3.533970160477036160e+00
-5.370743718386545851e+00 -1.001435745532559984e+00 -5.198495507586354814e-01 -1.001435745532559984e+00 1.949174860769216755e+00 9.872196205754561749e-02 -5.198495507586354814e-01 9.872196205754561749e-02 -8.767592064063045143e+00
-8.997337449443719493e+00 -1.747248926589212381e+00 -9.206851261389149554e-01 -1.747248926589212381e+00 -1.360666932926177797e+00 3.113320414466088093e-01 -9.206851261389149554e-01 3.113320414466088093e-01 -1.540921775299225338e+01
-7.763367355255508251e+00 -1.380596449207051490e+00 -6.226771971640066017e-01 -1.380596449207051490e+00 -3.819949472995768591e+00 8.450615367975970738e-02 -6.226771971640066017e-01 8.450615367975970738e-02 -1.756824844372196281e+01
-2.649351132082431892e+00 -5.865095186191858767e-01 -3.337227096715716379e-01 -5.865095186191858767e-01 -2.628174454313728425e+00 -7.859672937170382456e-02 -3.337227096715716379e-01 -7.859672937170382456e-02 -1.563754035628364569e+01
2.297494607712720516e+00 -6.137172204031033917e-01 -3.806874702276017430e-01 -6.137172204031033917e-01 -6.148457561788520653e-01 2.045951542356626296e-01 -3.806874702276017430e-01 2.045951542356626296e-01 -1.197548632747188257e+01
3.510153648922606173e+00 -5.880719233768879617e-01 -4.009406457685533720e-01 -5.880719233768879617e-01 5.713775993092388816e+00 -1.182313217126373245e-01 -4.009406457685533720e-01 -1.182313217126373245e-01 -6.439071267494386852e+00
5.304641414393338472e+00 -1.985183400904948492e-01 -5.413116627760798938e-01 -1.985183400904948492e-01 7.976740601934881880e+00 -7.477638862767012062e-01 -5.413116627760798938e-01 -7.477638862767012062e-01 -5.807054772168063206e-01
6.318166238895990716e+00 3.308771188050014245e-01 -5.209510463666591207e-01 3.308771188050014245e-01 6.199473774072697729e+00 -1.014039740968234460e+00 -5.209510463666591207e-01 -1.014039740968234460e+00 2.265678731966080495e+00
5.158556134758301326e+00 3.190108599454408722e-01 -2.683962940256988047e-02 3.190108599454408722e-01 3.624408326321817420e+00 -1.083533919148060409e+00 -2.683962940256988047e-02 -1.083533919148060409e+00 2.004154700974023040e+00
2.583622548855528223e+00 -1.011825792767435533e-01 2.873695078435302142e-01 -1.011825792767435533e-01 2.190577852159998340e+00 -1.057971365064542812e+00 2.873695078435302142e-01 -1.057971365064542812e+00 -1.303329721321084378e+00
-9.698806854108108499e-01 -4.230306895686853363e-01 9.632402206877351825e-01 -4.230306895686853363e-01 2.017206926995961602e+00 -1.040273552574240146e+00 9.632402206877351825e-01 -1.040273552574240146e+00 -4.958476965374955192e+00
-1.447687923399262111e+00 -1.501507078782961246e-01 9.178788023776238703e-01 -1.501507078782961246e-01 1.877655485460810958e+00 -9.588710330239528234e-01 9.178788023776238703e-01 -9.588710330239528234e-01 -5.297794324539720101e+00
-4.813296896143293702e-01 3.617331350283765068e-01 6.487871147148608353e-01 3.617331350283765068e-01 2.454886235336584122e+00 -7.862230938979545281e-01 6.487871147148608353e-01 -7.862230938979545281e-01 -7.400555473671762030e+00
9.076515420064470430e-01 5.799557780852137023e-01 6.697581861583592477e-01 5.799557780852137023e-01 9.597805077234701221e-01 -2.635962946853694366e-01 6.697581861583592477e-01 -2.635962946853694366e-01 -7.990792215070690929e+00
5.434511842947840066e-01 6.346992530806172539e-01 6.170331458757281062e-01 6.346992530806172539e-01 -1.592417468582909112e+00 1.890218970460839087e-01 6.170331458757281062e-01 1.890218970460839087e-01 -9.101882473864197465e+00
-1.671613168285403406e+00 4.252681465139133699e-01 4.176844722278611477e-01 4.252681465139133699e-01 -1.972317529533614389e+00 9.220602473870731508e-02 4.176844722278611477e-01 9.220602473870731508e-02 -8.738517062902189991e+00
-2.091562257604916653e+00 -1.473336130152520518e-01 2.671420388192378148e-01 -1.473336130152520518e-01 -1.268798095570960571e+00 -1.071321740383262278e-01 2.671420388192378148e-01 -1.071321740383262278e-01 -6.182305748655921640e+00
-1.474653534662031085e+00 -6.529937281676008176e-01 1.149856022649868442e-01 -6.529937281676008176e-01 7.167773185685049064e-01 -2.165422485349499104e-01 1.149856022649868442e-01 -2.165422485349499104e-01 -1.185397242564350639e+00
-1.790288267660682830e+00 -8.521222470506177871e-01 6.588007015611810346e-02 -8.521222470506177871e-01 1.908421163553570610e+00 -3.694355411193311900e-01 6.588007015611810346e-02 -3.694355411193311900e-01 1.844198405282154729e+00
-1.655210420129044291e+00 -7.878721712567376967e-01 2.272527879836264975e-01 -7.878721712567376967e-01 1.018492478652514910e+00 -8.999400553483370979e-01 2.272527879836264975e-01 -8.999400553483370979e-01 -8.160100469497920672e-01
-1.169979870511612452e+00 -5.111403324962168204e-01 2.662239678381445596e-01 -5.111403324962168204e-01 -1.774707308693605490e-01 -1.310827061755845291e+00 2.662239678381445596e-01 -1.310827061755845291e+00 -2.730978515005038965e+00
-1.410516763130102547e+00 -1.507643520120912073e-01 2.807333115878436480e-01 -1.507643520120912073e-01 3.481385146663613234e-02 -1.311223321544571441e+00 2.807333115878436480e-01 -1.311223321544571441e+00 -4.139606315325563557e+00
-6.021590663358491469e-01 1.143300646115533031e-01 2.062596832603396657e-01 1.143300646115533031e-01 1.811006373519356449e+00 -9.993490096855459637e-01 2.062596832603396657e-01 -9.993490096855459637e-01 -3.974871301628437159e+00
7.210488116956003113e-01 1.883428953205615597e-01 1.027041681225560610e-01 1.883428953205615597e-01 2.316544587136860400e+00 -6.995356529550822433e-01 1.027041681225560610e-01 -6.995356529550822433e-01 -3.874846203459072047e+00
2.241505617903266856e+00 8.216170332715717894e-02 3.013914733107413424e-01 8.216170332715717894e-02 2.867470027395414789e+00 -5.611869097784885074e-01 3.013914733107413424e-01 -5.611869097784885074e-01 -3.616756965446382921e+00
3.673034775816303554e+00 -3.669478634509833886e-02 5.001214420808096639e-01 -3.669478634509833886e-02 3.409307838630108112e+00 -6.197596095288083751e-01 5.001214420808096639e-01 -6.197596095288083751e-01 -3.308061031048988188e+00
4.179790520683001276e+00 -1.118176124437021690e-01 3.505733984475274956e-01 -1.118176124437021690e-01 3.284053948818218771e+00 -7.156074650277667315e-01 3.505733984475274956e-01 -7.156074650277667315e-01 -3.606570476501882005e+00
2.744862246816104800e+00 -1.748116509429313292e-01 4.625110967462785910e-02 -1.748116509429313292e-01 3.616201621877419559e+00 -7.940837384264060050e-01 4.625110967462785910e-02 -7.940837384264060050e-01 -2.950025651701080776e+00
2.353384565027975217e+00 -2.085539733222390724e-01 -1.839119312816683838e-01 -2.085539733222390724e-01 4.017498587630564444e+00 -9.225215264442716556e-01 -1.839119312816683838e-01 -9.225215264442716556e-01 -6.263731104322810550e-01
2.733891863884533979e+00 -6.641157254308689695e-02 -3.833019827494256737e-01 -6.641157254308689695e-02 4.135865630711417218e+00 -9.799469251289482097e-01 -3.833019827494256737e-01 -9.799469251289482097e-01 1.815045194886150570e+00
1.110920395229136659e+00 1.516352799749831615e-01 -3.295830185907185350e-01 1.516352799749831615e-01 1.612364665732815006e+00 -9.696001252116032143e-01 -3.295830185907185350e-01 -9.696001252116032143e-01 2.469864806864468243e-01
-9.447411350596115476e-01 2.981186877350228692e-01 -1.321746672253689137e-01 2.981186877350228692e-01 -2.254319832139902058e+00 -8.229107320651891655e-01 -1.321746672253689137e-01 -8.229107320651891655e-01 -3.072950203675955283e+00
-2.211010627949424823e+00 3.436827637489210940e-01 -8.802642368982432908e-02 3.436827637489210940e-01 -4.914598094065126155e+00 -5.551483589149038833e-01 -8.802642368982432908e-02 -5.551483589149038833e-01 -7.057216388294984988e+00
-2.620706661771503576e+00 3.112776257104691857e-01 -2.417355927118913506e-01 3.112776257104691857e-01 -5.647104672338262965e+00 -2.688411009528101081e-01 -2.417355927118913506e-01 -2.688411009528101081e-01 -8.845266146934566365e+00
-1.497536144176851103e+00 1.118209179605692827e-01 -3.602307391715172669e-01 1.118209179605692827e-01 -4.085789688087410276e+00 -7.357499228438876826e-02 -3.602307391715172669e-01 -7.357499228438876826e-02 -6.997746484444134829e+00
5.340867537501483575e-01 -1.733235775760040009e-01 -2.205286150347605667e-01 -1.733235775760040009e-01 -5.166853592372332438e-01 -3.009573262621431308e-02 -2.205286150347605667e-01 -3.009573262621431308e-02 -5.036506625959543015e+00
1.516720705523251667e+00 -1.719011216433118452e-02 -7.928756165735237338e-02 -1.719011216433118452e-02 2.839731677213907179e+00 -1.117212671419347408e-01 -7.928756165735237338e-02 -1.117212671419347408e-01 -3.950023112564621020e+00
1.195818646799369445e+00 1.633236126117651732e-01 7.700368409421053106e-02 1.633236126117651732e-01 4.803072733939355743e+00 -9.255935310529456173e-02 7.700368409421053106e-02 -9.255935310529456173e-02 -4.359318118615350457e+00
1.091645270548171842e+00 2.876774696867147596e-01 6.345412378273791454e-01 2.876774696867147596e-01 3.362353754364561631e+00 2.124223604484691552e-01 6.345412378273791454e-01 2.124223604484691552e-01 -3.264611368646971545e+00
2.292419032352228658e+00 4.705913979149090043e-01 9.842301097114545261e-01 4.705913979149090043e-01 3.039030813991027369e+00 7.261345113160271314e-01 9.842301097114545261e-01 7.261345113160271314e-01 -1.752367462141768417e+00
2.924677263462959864e+00 2.722400363052350225e-01 6.834439421658982106e-01 2.722400363052350225e-01 4.266700308439896894e+00 9.366658029437783251e-01 6.834439421658982106e-01 9.366658029437783251e-01 1.219508071375565050e+00
2.074252284371055133e+00 -3.741546092269635443e-02 2.550461085829426877e-01 -3.741546092269635443e-02 5.053524249361060150e+00 4.121452247505310584e-01 2.550461085829426877e-01 4.121452247505310584e-01 4.067058293715897221e+00
1.406092936048828568e+00 -6.142701319816227384e-02 2.473790135523458097e-02 -6.142701319816227384e-02 3.853131446983956820e+00 -2.267495191074591632e-01 2.473790135523458097e-02 -2.267495191074591632e-01 5.093276391458578800e-01
1.626421534413806214e+00 4.883152154822291147e-01 -1.382901508736036032e-02 4.883152154822291147e-01 -1.602358617799278795e-01 -7.200610994194471814e-01 -1.382901508736036032e-02 -7.200610994194471814e-01 -4.144121233143384764e+00
6.234513467611314530e-01 1.145623444745853314e+00 1.646678285748011950e-01 1.145623444745853314e+00 -2.328075697533604327e+00 -1.395526234854129521e+00 1.646678285748011950e-01 -1.395526234854129521e+00 -9.176747104540785571e+00
-5.464120806538643738e-01 1.272943677482515579e+00 3.862195401025163982e-02 1.272943677482515579e+00 -3.366774717696243147e-01 -1.828448997563481448e+00 3.862195401025163982e-02 -1.828448997563481448e+00 -9.954604038106344532e+00
-1.485127102502151741e-01 7.547615208444754531e-01 -1.041351399383167453e-01 7.547615208444754531e-01 4.634663453483473639e+00 -1.560520623010083430e+00 -1.041351399383167453e-01 -1.560520623010083430e+00 -8.248434762820879840e+00
2.860043984176358633e-01 4.120438894837775146e-01 -2.404398135558641070e-01 4.120438894837775146e-01 8.464539613599607604e-01 -7.117352862286960846e-01 -2.404398135558641070e-01 -7.117352862286960846e-01 -1.027619346971869518e+01
-2.806567282243811690e+00 -1.871657370237121698e-01 -8.815962215776894650e-01 -1.871657370237121698e-01 -4.259587017120597174e+00 -2.185214311052895708e-01 -8.815962215776894650e-01 -2.185214311052895708e-01 -1.110872173702847299e+01
-5.761054445458626994e+00 -6.008622302786389424e-01 -1.559822359709679196e+00 -6.008622302786389424e-01 -4.052247387678395540e+00 -8.017712966922010964e-02 -1.559822359709679196e+00 -8.017712966922010964e-02 -1.135513407108851602e+01
-2.825082888264922154e+00 -1.729023112901817982e-01 -2.134261374412698142e+00 -1.729023112901817982e-01 3.118790597061452674e-01 -3.309217298563670862e-01 -2.134261374412698142e+00 -3.309217298563670862e-01 -7.706683777098033872e+00
3.655526233864576202e+00 -3.933912428620621182e-01 -2.131901371587297422e+00 -3.933912428620621182e-01 3.766842560072936941e+00 -1.034000208478572880e+00 -2.131901371587297422e+00 -1.034000208478572880e+00 3.174053443818786735e-01
7.775656454744064305e+00 -1.241261459376420184e+00 -1.015856792033906109e+00 -1.241261459376420184e+00 3.360364320962440754e+00 -1.177816737044018458e+00 -1.015856792033906109e+00 -1.177816737044018458e+00 4.627432172458182613e+00
5.548444549761477163e+00 -1.144708052533494280e+00 -4.609291429012036256e-01 -1.144708052533494280e+00 -9.431735561018810277e-01 -3.613254079348167114e-01 -4.609291429012036256e-01 -3.613254079348167114e-01 4.899501624593703974e-01
-2.727432582081380730e+00 -2.977769796021021986e-01 -6.680825239619005151e-02 -2.977769796021021986e-01 -4.990856703280735829e+00 1.534040327128216585e-01 -6.680825239619005151e-02 1.534040327128216585e-01 -8.062464625094092341e+00
-6.900165065252580554e+00 1.995603800407901862e-01 2.208710552523395765e-01 1.995603800407901862e-01 -2.979973897600949773e+00 1.025320992534906467e-01 2.208710552523395765e-01 1.025320992534906467e-01 -1.062877047573098999e+01
-4.905874818912607793e+00 1.655272799059141209e-01 1.048805341622666559e-01 1.655272799059141209e-01 1.866047585488905258e-01 -3.832060211778633985e-01 1.048805341622666559e-01 -3.832060211778633985e-01 -9.691041456709815094e+00
-6.506653010356211464e-02 -4.836358773437749586e-02 2.668614714544090272e-01 -4.836358773437749586e-02 1.879617882159039466e+00 -9.069068539246094574e-01 2.668614714544090272e-01 -9.069068539246094574e-01 -7.804206732495317489e+00
4.476212455171522109e+00 -4.351066133079956599e-01 2.888203064858221314e-01 -4.351066133079956599e-01 -1.888957591931340885e-02 -9.882721972052059822e-01 2.888203064858221314e-01 -9.882721972052059822e-01 -9.604680152645629576e+00
3.784838626901412262e+00 -6.024553290211965839e-01 4.115270926617138336e-01 -6.024553290211965839e-01 -1.027818845142977056e+00 -5.827853290744093862e-01 4.115270926617138336e-01 -5.827853290744093862e-01 -9.694280928443705037e+00
-2.272215990293064702e-01 -5.534240095853244501e-01 8.899102711195957527e-01 -5.534240095853244501e-01 1.244488786667515834e+00 -3.667512178401409750e-01 8.899102711195957527e-01 -3.667512178401409750e-01 -8.413230190074884263e+00
-1.020302726523455883e+00 -1.011723518774145097e-01 8.567923028848364320e-01 -1.011723518774145097e-01 5.008578791277717990e+00 -7.744346049795098885e-01 8.567923028848364320e-01 -7.744346049795098885e-01 -6.634342782571724939e+00
1.533728603566732573e+00 5.807198389053203069e-01 5.777990024175879702e-01 5.807198389053203069e-01 8.212522360932794641e+00 -5.270254519898696088e-01 5.777990024175879702e-01 -5.270254519898696088e-01 -3.115701188644042219e+00
3.575811293496670817e+00 9.117117814158433031e-01 2.686039337607936117e-01 9.117117814158433031e-01 7.963080226742797585e+00 2.277316117510010951e-01 2.686039337607936117e-01 2.277316117510010951e-01 -1.108099105813365792e+00
3.896690890279880026e+00 3.462874906291660837e-01 7.054795429315219302e-02 3.462874906291660837e-01 4.544115604202477066e+00 6.836014671186044223e-02 7.054795429315219302e-02 6.836014671186044223e-02 -3.678122360785344380e+00
4.203780401553853352e+00 -6.175351222202718482e-01 9.361311056078504278e-02 -6.175351222202718482e-01 5.611338831724350940e-02 -6.467884573737028298e-01 9.361311056078504278e-02 -6.467884573737028298e-01 -6.171747212189245602e+00
4.701842201017262468e+00 -9.526560832202723983e-01 -1.251166111224550070e-01 -9.526560832202723983e-01 -3.159099886613070840e+00 -1.038607228700975549e+00 -1.251166111224550070e-01 -1.038607228700975549e+00 -5.588267689061622967e+00
3.626456560440567856e+00 -7.086267361489956285e-01 -3.701110805652469415e-01 -7.086267361489956285e-01 -5.196257007601274402e+00 -5.758390981623393579e-01 -3.701110805652469415e-01 -5.758390981623393579e-01 -5.580717933250881835e+00
7.049809582652696305e-01 -3.074838385598052670e-01 9.732786858155123566e-02 -3.074838385598052670e-01 -5.448905184319873030e+00 -2.676452881275953946e-02 9.732786858155123566e-02 -2.676452881275953946e-02 -6.369147398865541376e+00
-1.411898738915084772e+00 6.820976907595887630e-03 4.832040182225496583e-01 6.820976907595887630e-03 -5.438931253047171843e+00 2.626248771826624751e-01 4.832040182225496583e-01 2.626248771826624751e-01 -6.275681090139798357e+00
-1.790523672423676382e+00 1.264943685023331155e-01 4.015350850954838569e-01 1.264943685023331155e-01 -5.268838470419369813e+00 2.541063663323004373e-01 4.015350850954838569e-01 2.541063663323004373e-01 -4.685939084587062986e+00
-4.826557732241331111e-01 7.772039523653151427e-02 3.175555516043694904e-01 7.772039523653151427e-02 -3.349414536065138837e+00 -2.049431156708928642e-02 3.175555516043694904e-01 -2.049431156708928642e-02 -2.315845406164112941e+00
9.436936525463073266e-01 4.379015735887825667e-02 2.599957505815075343e-01 4.379015735887825667e-02 -1.052269292343877005e+00 -2.342459469045190812e-01 2.599957505815075343e-01 -2.342459469045190812e-01 -1.062665035317252205e+00
1.068168512223893973e+00 -1.664170633020483728e-05 1.683969489151710686e-01 -1.664170633020483728e-05 2.464227215568108420e+00 -3.035304731263532840e-01 1.683969489151710686e-01 -3.035304731263532840e-01 -1.282232857872750653e+00
1.287511569566652136e+00 -1.445765488545321664e-01 9.679433821396624116e-02 -1.445765488545321664e-01 5.267914231493257660e+00 -4.075374877565858811e-01 9.679433821396624116e-02 -4.075374877565858811e-01 -3.218425473860961894e+00
1.662173568781303956e+00 -1.342769490916479735e-01 1.225324308536479036e-02 -1.342769490916479735e-01 6.444283481107846434e+00 -5.625454595812129366e-01 1.225324308536479036e-02 -5.625454595812129366e-01 -4.641120337693853237e+00
2.401721466406223637e+00 4.833613344438006387e-02 -1.699018234408838091e-01 4.833613344438006387e-02 5.759051433586915181e+00 -6.857374182942765906e-01 -1.699018234408838091e-01 -6.857374182942765906e-01 -3.957303924169881082e+00
3.913124067933393402e+00 1.340690393561227434e-01 -4.283773999846509084e-01 1.340690393561227434e-01 3.867162643919693554e+00 -7.018034896466639472e-01 -4.283773999846509084e-01 -7.018034896466639472e-01 -2.423088947872230392e+00
4.015819947325291572e+00 1.203963475140441830e-01 -4.405087830076690469e-01 1.203963475140441830e-01 2.238945261173014956e+00 -7.241221106281212627e-01 -4.405087830076690469e-01 -7.241221106281212627e-01 -2.716165222962842130e+00
3.496355089254266524e+00 -1.356063888255247020e-02 -1.609841912639536909e-01 -1.356063888255247020e-02 9.085489501252757005e-01 -6.505193996404662338e-01 -1.609841912639536909e-01 -6.505193996404662338e-01 -5.022874831909199145e+00
2.542089603314408031e+00 -2.466054436353100898e-01 -8.501404899188219275e-03 -2.466054436353100898e-01 5.750796464148699716e-01 -4.187554222972791895e-01 -8.501404899188219275e-03 -4.187554222972791895e-01 -6.040030004081804016e+00
1.800632986501382371e+00 -3.615738326776330447e-01 -4.473512857505456547e-02 -3.615738326776330447e-01 1.003619264096742514e+00 -4.881786275460172075e-01 -4.473512857505456547e-02 -4.881786275460172075e-01 -3.710745079944443248e+00
1.409756822243031893e+00 -2.854318628195615659e-01 -7.340608891645730716e-02 -2.854318628195615659e-01 1.724486780983572665e+00 -6.048537506235579508e-01 -7.340608891645730716e-02 -6.048537506235579508e-01 -9.508961848879957657e-01
5.764661039286682609e-01 -2.083177514944190567e-01 -3.865078921779982468e-01 -2.083177514944190567e-01 1.280835231058547796e+00 -4.983712922271334445e-01 -3.865078921779982468e-01 -4.983712922271334445e-01 4.700348873359013191e-01
-3.636926924382374859e-01 -7.295570818375260447e-02 -8.274901106524904515e-01 -7.295570818375260447e-02 -5.313516556414210612e-01 -5.514093237354547039e-01 -8.274901106524904515e-01 -5.514093237354547039e-01 3.563304947779334392e-03
-2.455018264001505024e+00 1.774499441133326749e-01 -1.096019850743969570e+00 1.774499441133326749e-01 -2.759453886194989103e+00 -4.555670166075742045e-01 -1.096019850743969570e+00 -4.555670166075742045e-01 -4.184784210849863406e+00
-3.865416902056703741e+00 2.157190855367453475e-01 -1.258880670946838976e+00 2.157190855367453475e-01 -4.238926614471957066e+00 -3.240636708143971312e-01 -1.258880670946838976e+00 -3.240636708143971312e-01 -6.832865397485504921e+00
-3.387078160606964872e+00 1.108747415308115047e-01 -1.340453232813876738e+00 1.108747415308115047e-01 -3.539019723132647677e+00 -3.754793051339915810e-01 -1.340453232813876738e+00 -3.754793051339915810e-01 -7.904888422522982516e+00
-2.026341580430493838e+00 1.154565370041332889e-01 -1.075292383668465357e+00 1.154565370041332889e-01 -1.871523860656427285e+00 -2.415333333226399315e-01 -1.075292383668465357e+00 -2.415333333226399315e-01 -6.899058796227332202e+00
3.700287930207937226e-01 1.405885276773139181e-01 -6.627112970065526243e-01 1.405885276773139181e-01 -1.107350059231337447e+00 1.212695394337999777e-01 -6.627112970065526243e-01 1.212695394337999777e-01 -6.077732743356135003e+00
3.547631136138328145e+00 1.485083699216515063e-01 -4.904525762011460177e-01 1.485083699216515063e-01 5.588907699685417008e-01 1.296696119996464669e-01 -4.904525762011460177e-01 1.296696119996464669e-01 -6.204597997065000037e+00
5.048715791973748424e+00 2.452076676387574539e-01 -6.458280380294386669e-01 2.452076676387574539e-01 3.843502912957707185e+00 7.074346341953832717e-02 -6.458280380294386669e-01 7.074346341953832717e-02 -4.970916632024692028e+00
8.171568986424736281e+00 6.202377242830849763e-02 -8.146177355710787493e-01 6.202377242830849763e-02 8.221653051159464098e+00 -4.966476465520880401e-02 -8.146177355710787493e-01 -4.966476465520880401e-02 -1.157799270628843580e+00
8.865441714045658728e+00 -3.781859282979467274e-01 -9.883438934249765273e-01 -3.781859282979467274e-01 1.015425227160524280e+01 -3.827542723744853381e-02 -9.883438934249765273e-01 -3.827542723744853381e-02 1.360010156722290420e+00
5.326114084598740028e+00 -6.597516951980155753e-01 -1.183311793154011582e+00 -6.597516951980155753e-01 6.453174856283411920e+00 7.355670821706910001e-01 -1.183311793154011582e+00 7.355670821706910001e-01 -1.372821047943488137e+00
2.359947073784472327e+00 -7.534425688947802291e-01 -1.321402592381538676e+00 -7.534425688947802291e-01 1.368499424653986551e+00 1.101384509095324482e+00 -1.321402592381538676e+00 1.101384509095324482e+00 -4.565467922694675273e+00
9.899649315279163142e-02 -8.713272807890585225e-01 -1.367721107441837836e+00 -8.713272807890585225e-01 -8.551985875046964614e-01 1.044110852008591772e+00 -1.367721107441837836e+00 1.044110852008591772e+00 -7.062677739553249623e+00
7.183647717386023590e-01 -9.008620182792779207e-01 -1.348401477515056790e+00 -9.008620182792779207e-01 -2.101536903000622125e+00 5.230090936866584883e-01 -1.348401477515056790e+00 5.230090936866584883e-01 -9.377721729239850035e+00
2.463503453002516164e+00 -6.926684185029906571e-01 -1.006373697953666602e+00 -6.926684185029906571e-01 -4.378083460716226227e+00 6.715061304208061466e-02 -1.006373697953666602e+00 6.715061304208061466e-02 -9.811457638817310922e+00
3.467818305089910513e+00 -5.941024885795547217e-01 -3.435571684472930598e-01 -5.941024885795547217e-01 -5.624560362014889847e+00 -1.306813345707892593e-01 -3.435571684472930598e-01 -1.306813345707892593e-01 -8.629958603878641554e+00
3.877665611383696032e+00 -5.199000122236514532e-01 -6.821620062293868303e-01 -5.199000122236514532e-01 -6.504276149500164195e+00 -9.924612864034647597e-01 -6.821620062293868303e-01 -9.924612864034647597e-01 -4.326384187030457795e+00
2.832395954493499346e+00 1.622497648808196302e-01 -6.197865874219806726e-01 1.622497648808196302e-01 -4.373608046459692922e+00 -1.795015829526086959e+00 -6.197865874219806726e-01 -1.795015829526086959e+00 -3.610587302954264111e+00
-1.361478146031709135e+00 4.292734194446672924e-01 2.567854543497362085e-01 4.292734194446672924e-01 -1.238035719048665495e+00 -1.234083284122372559e+00 2.567854543497362085e-01 -1.234083284122372559e+00 -2.316238483985929353e+00
-3.923239226857266893e+00 3.140103903193695867e-02 7.220541370506488033e-01 3.140103903193695867e-02 -2.762017390062208033e-01 -3.891728380724339686e-01 7.220541370506488033e-01 -3.891728380724339686e-01 -5.983476687150275808e+00
-5.502248451719720101e+00 -1.998972075994123188e-01 1.067820648046493348e+00 -1.998972075994123188e-01 -8.123007803324926446e-01 2.738188740402061061e-01 1.067820648046493348e+00 2.738188740402061061e-01 -1.130687534832689245e+01
-4.476141571559280052e+00 -4.940404579499161342e-01 8.343943987453017463e-01 -4.940404579499161342e-01 -1.790359144255525781e+00 1.117393320601886453e+00 8.343943987453017463e-01 1.117393320601886453e+00 -1.070512751184865152e+01