
40 atoms
15 atom types
   0.0000000000    8.1663862465 xlo xhi
   0.0000000000    8.1101965476 ylo yhi
   0.0000000000    8.1656762503 zlo zhi
   0.0687296318    0.0083499553    0.0389797912 xy xz yz

Atoms # atomic

     1      2    0.0633416606    7.9970974536    0.0003312982
     2      2    0.0700009250    8.0260936982    4.0843907169
     3      2    0.0437128658    4.1659811797    0.0082891556
     4      2    0.0395204883    4.1824775913    4.0760843614
     5      2    4.1476426780    8.0002483367    0.0060846674
     6      2    4.1535045466    8.0175154442    4.0772110553
     7      2    4.1311492663    4.1561603323   -0.0021352886
     8      2    4.1240037046    4.1918728410    4.0895520892
     9      9    2.0986197561    6.0987600244    2.0363364898
    10      9    2.0947871767    6.1210014052    6.1167689279
    11      9    6.1786135965    6.0929849553    2.0351846960
    12      9    6.1599650964    6.1092492682    6.1095798664
    13     10    2.0506078134    2.0435296513    2.0456329400
    14     10    2.0733267916    2.0545867920    6.1263110768
    15     10    6.1472690645    2.0319119135    2.0344449000
    16     10    6.1524035370    2.0573631772    6.1135557451
    17     15    2.0637896427    2.0260897447   -0.0032045828
    18     15    0.0287101462    2.0324009109    2.0381356802
    19     15    2.1078971064    8.0170017469    2.0391852746
    20     15    2.0541849942    2.0486371239    4.0904956841
    21     15    0.0216028843    2.0514299090    6.1240111891
    22     15    2.1176436542    8.0323849645    6.1272244719
    23     15    2.0969545650    6.0799536251   -0.0028666846
    24     15    0.0556329019    6.1012301111    2.0495590190
    25     15    2.0778699673    4.1745275339    2.0385429780
    26     15    2.0856021259    6.1002416164    4.0769286568
    27     15    0.0529706162    6.1051213903    6.1229669947
    28     15    2.0914403946    4.1837466845    6.1250180837
    29     15    6.1431800864    2.0235179585   -0.0054829706
    30     15    4.1093107833    2.0316357150    2.0528140015
    31     15    6.2011099760    8.0189340366    2.0495242192
    32     15    6.1502299486    2.0437572501    4.0812727336
    33     15    4.1036977134    2.0580199736    6.1168820273
    34     15    6.1993739853    8.0439917023    6.1190331158
    35     15    6.1735727235    6.0832796073    0.0037417800
    36     15    4.1431443021    6.1007688136    2.0430339539
    37     15    6.1593125999    4.1619918011    2.0495672189
    38     15    6.1821654775    6.1009735125    4.0789557460
    39     15    4.1394325220    6.1158594328    6.1317590476
    40     15    6.1694186458    4.1898216520    6.1246196858
