
40000 atoms
15 atom types
   0.0000000000   79.3470000000 xlo xhi
   0.0000000000   79.3470000000 ylo yhi
   0.0000000000   81.4474000000 zlo zhi
   0.0000000000    0.0000000000    0.0000000000 xy xz yz

Atoms # atomic

     1      2    0.0000000000    0.0000000000    0.2000000000
     2      2    0.0000000000    0.0000000000    4.2723700000
     3      2    0.0000000000    0.0000000000    8.3447400000
     4      2    0.0000000000    0.0000000000   12.4171100000
     5      2    0.0000000000    0.0000000000   16.4894800000
     6      2    0.0000000000    0.0000000000   20.5618500000
     7      2    0.0000000000    0.0000000000   24.6342200000
     8      2    0.0000000000    0.0000000000   28.7065900000
     9      2    0.0000000000    0.0000000000   32.7789600000
    10      2    0.0000000000    0.0000000000   36.8513300000
    11      2    0.0000000000    0.0000000000   40.9237000000
    12      2    0.0000000000    0.0000000000   44.9960700000
    13      2    0.0000000000    0.0000000000   49.0684400000
    14      2    0.0000000000    0.0000000000   53.1408100000
    15      2    0.0000000000    0.0000000000   57.2131800000
    16      2    0.0000000000    0.0000000000   61.2855500000
    17      2    0.0000000000    0.0000000000   65.3579200000
    18      2    0.0000000000    0.0000000000   69.4302900000
    19      2    0.0000000000    0.0000000000   73.5026600000
    20      2    0.0000000000    0.0000000000   77.5750300000
    21      2    0.0000000000    3.9673500000    0.2000000000
    22      2    0.0000000000    3.9673500000    4.2723700000
    23      2    0.0000000000    3.9673500000    8.3447400000
    24      2    0.0000000000    3.9673500000   12.4171100000
    25      2    0.0000000000    3.9673500000   16.4894800000
    26      2    0.0000000000    3.9673500000   20.5618500000
    27      2    0.0000000000    3.9673500000   24.6342200000
    28      2    0.0000000000    3.9673500000   28.7065900000
    29      2    0.0000000000    3.9673500000   32.7789600000
    30      2    0.0000000000    3.9673500000   36.8513300000
    31      2    0.0000000000    3.9673500000   40.9237000000
    32      2    0.0000000000    3.9673500000   44.9960700000
    33      2    0.0000000000    3.9673500000   49.0684400000
    34      2    0.0000000000    3.9673500000   53.1408100000
    35      2    0.0000000000    3.9673500000   57.2131800000
    36      2    0.0000000000    3.9673500000   61.2855500000
    37      2    0.0000000000    3.9673500000   65.3579200000
    38      2    0.0000000000    3.9673500000   69.4302900000
    39      2    0.0000000000    3.9673500000   73.5026600000
    40      2    0.0000000000    3.9673500000   77.5750300000
    41      2    0.0000000000    7.9347000000    0.2000000000
    42      2    0.0000000000    7.9347000000    4.2723700000
    43      2    0.0000000000    7.9347000000    8.3447400000
    44      2    0.0000000000    7.9347000000   12.4171100000
    45      2    0.0000000000    7.9347000000   16.4894800000
    46      2    0.0000000000    7.9347000000   20.5618500000
    47      2    0.0000000000    7.9347000000   24.6342200000
    48      2    0.0000000000    7.9347000000   28.7065900000
    49      2    0.0000000000    7.9347000000   32.7789600000
    50      2    0.0000000000    7.9347000000   36.8513300000
    51      2    0.0000000000    7.9347000000   40.9237000000
    52      2    0.0000000000    7.9347000000   44.9960700000
    53      2    0.0000000000    7.9347000000   49.0684400000
    54      2    0.0000000000    7.9347000000   53.1408100000
    55      2    0.0000000000    7.9347000000   57.2131800000
    56      2    0.0000000000    7.9347000000   61.2855500000
    57      2    0.0000000000    7.9347000000   65.3579200000
    58      2    0.0000000000    7.9347000000   69.4302900000
    59      2    0.0000000000    7.9347000000   73.5026600000
    60      2    0.0000000000    7.9347000000   77.5750300000
    61      2    0.0000000000   11.9020500000    0.2000000000
    62      2    0.0000000000   11.9020500000    4.2723700000
    63      2    0.0000000000   11.9020500000    8.3447400000
    64      2    0.0000000000   11.9020500000   12.4171100000
    65      2    0.0000000000   11.9020500000   16.4894800000
    66      2    0.0000000000   11.9020500000   20.5618500000
    67      2    0.0000000000   11.9020500000   24.6342200000
    68      2    0.0000000000   11.9020500000   28.7065900000
    69      2    0.0000000000   11.9020500000   32.7789600000
    70      2    0.0000000000   11.9020500000   36.8513300000
    71      2    0.0000000000   11.9020500000   40.9237000000
    72      2    0.0000000000   11.9020500000   44.9960700000
    73      2    0.0000000000   11.9020500000   49.0684400000
    74      2    0.0000000000   11.9020500000   53.1408100000
    75      2    0.0000000000   11.9020500000   57.2131800000
    76      2    0.0000000000   11.9020500000   61.2855500000
    77      2    0.0000000000   11.9020500000   65.3579200000
    78      2    0.0000000000   11.9020500000   69.4302900000
    79      2    0.0000000000   11.9020500000   73.5026600000
    80      2    0.0000000000   11.9020500000   77.5750300000
    81      2    0.0000000000   15.8694000000    0.2000000000
    82      2    0.0000000000   15.8694000000    4.2723700000
    83      2    0.0000000000   15.8694000000    8.3447400000
    84      2    0.0000000000   15.8694000000   12.4171100000
    85      2    0.0000000000   15.8694000000   16.4894800000
    86      2    0.0000000000   15.8694000000   20.5618500000
    87      2    0.0000000000   15.8694000000   24.6342200000
    88      2    0.0000000000   15.8694000000   28.7065900000
    89      2    0.0000000000   15.8694000000   32.7789600000
    90      2    0.0000000000   15.8694000000   36.8513300000
    91      2    0.0000000000   15.8694000000   40.9237000000
    92      2    0.0000000000   15.8694000000   44.9960700000
    93      2    0.0000000000   15.8694000000   49.0684400000
    94      2    0.0000000000   15.8694000000   53.1408100000
    95      2    0.0000000000   15.8694000000   57.2131800000
    96      2    0.0000000000   15.8694000000   61.2855500000
    97      2    0.0000000000   15.8694000000   65.3579200000
    98      2    0.0000000000   15.8694000000   69.4302900000
    99      2    0.0000000000   15.8694000000   73.5026600000
   100      2    0.0000000000   15.8694000000   77.5750300000
   101      2    0.0000000000   19.8367500000    0.2000000000
   102      2    0.0000000000   19.8367500000    4.2723700000
   103      2    0.0000000000   19.8367500000    8.3447400000
   104      2    0.0000000000   19.8367500000   12.4171100000
   105      2    0.0000000000   19.8367500000   16.4894800000
   106      2    0.0000000000   19.8367500000   20.5618500000
   107      2    0.0000000000   19.8367500000   24.6342200000
   108      2    0.0000000000   19.8367500000   28.7065900000
   109      2    0.0000000000   19.8367500000   32.7789600000
   110      2    0.0000000000   19.8367500000   36.8513300000
   111      2    0.0000000000   19.8367500000   40.9237000000
   112      2    0.0000000000   19.8367500000   44.9960700000
   113      2    0.0000000000   19.8367500000   49.0684400000
   114      2    0.0000000000   19.8367500000   53.1408100000
   115      2    0.0000000000   19.8367500000   57.2131800000
   116      2    0.0000000000   19.8367500000   61.2855500000
   117      2    0.0000000000   19.8367500000   65.3579200000
   118      2    0.0000000000   19.8367500000   69.4302900000
   119      2    0.0000000000   19.8367500000   73.5026600000
   120      2    0.0000000000   19.8367500000   77.5750300000
   121      2    0.0000000000   23.8041000000    0.2000000000
   122      2    0.0000000000   23.8041000000    4.2723700000
   123      2    0.0000000000   23.8041000000    8.3447400000
   124      2    0.0000000000   23.8041000000   12.4171100000
   125      2    0.0000000000   23.8041000000   16.4894800000
   126      2    0.0000000000   23.8041000000   20.5618500000
   127      2    0.0000000000   23.8041000000   24.6342200000
   128      2    0.0000000000   23.8041000000   28.7065900000
   129      2    0.0000000000   23.8041000000   32.7789600000
   130      2    0.0000000000   23.8041000000   36.8513300000
   131      2    0.0000000000   23.8041000000   40.9237000000
   132      2    0.0000000000   23.8041000000   44.9960700000
   133      2    0.0000000000   23.8041000000   49.0684400000
   134      2    0.0000000000   23.8041000000   53.1408100000
   135      2    0.0000000000   23.8041000000   57.2131800000
   136      2    0.0000000000   23.8041000000   61.2855500000
   137      2    0.0000000000   23.8041000000   65.3579200000
   138      2    0.0000000000   23.8041000000   69.4302900000
   139      2    0.0000000000   23.8041000000   73.5026600000
   140      2    0.0000000000   23.8041000000   77.5750300000
   141      2    0.0000000000   27.7714500000    0.2000000000
   142      2    0.0000000000   27.7714500000    4.2723700000
   143      2    0.0000000000   27.7714500000    8.3447400000
   144      2    0.0000000000   27.7714500000   12.4171100000
   145      2    0.0000000000   27.7714500000   16.4894800000
   146      2    0.0000000000   27.7714500000   20.5618500000
   147      2    0.0000000000   27.7714500000   24.6342200000
   148      2    0.0000000000   27.7714500000   28.7065900000
   149      2    0.0000000000   27.7714500000   32.7789600000
   150      2    0.0000000000   27.7714500000   36.8513300000
   151      2    0.0000000000   27.7714500000   40.9237000000
   152      2    0.0000000000   27.7714500000   44.9960700000
   153      2    0.0000000000   27.7714500000   49.0684400000
   154      2    0.0000000000   27.7714500000   53.1408100000
   155      2    0.0000000000   27.7714500000   57.2131800000
   156      2    0.0000000000   27.7714500000   61.2855500000
   157      2    0.0000000000   27.7714500000   65.3579200000
   158      2    0.0000000000   27.7714500000   69.4302900000
   159      2    0.0000000000   27.7714500000   73.5026600000
   160      2    0.0000000000   27.7714500000   77.5750300000
   161      2    0.0000000000   31.7388000000    0.2000000000
   162      2    0.0000000000   31.7388000000    4.2723700000
   163      2    0.0000000000   31.7388000000    8.3447400000
   164      2    0.0000000000   31.7388000000   12.4171100000
   165      2    0.0000000000   31.7388000000   16.4894800000
   166      2    0.0000000000   31.7388000000   20.5618500000
   167      2    0.0000000000   31.7388000000   24.6342200000
   168      2    0.0000000000   31.7388000000   28.7065900000
   169      2    0.0000000000   31.7388000000   32.7789600000
   170      2    0.0000000000   31.7388000000   36.8513300000
   171      2    0.0000000000   31.7388000000   40.9237000000
   172      2    0.0000000000   31.7388000000   44.9960700000
   173      2    0.0000000000   31.7388000000   49.0684400000
   174      2    0.0000000000   31.7388000000   53.1408100000
   175      2    0.0000000000   31.7388000000   57.2131800000
   176      2    0.0000000000   31.7388000000   61.2855500000
   177      2    0.0000000000   31.7388000000   65.3579200000
   178      2    0.0000000000   31.7388000000   69.4302900000
   179      2    0.0000000000   31.7388000000   73.5026600000
   180      2    0.0000000000   31.7388000000   77.5750300000
   181      2    0.0000000000   35.7061500000    0.2000000000
   182      2    0.0000000000   35.7061500000    4.2723700000
   183      2    0.0000000000   35.7061500000    8.3447400000
   184      2    0.0000000000   35.7061500000   12.4171100000
   185      2    0.0000000000   35.7061500000   16.4894800000
   186      2    0.0000000000   35.7061500000   20.5618500000
   187      2    0.0000000000   35.7061500000   24.6342200000
   188      2    0.0000000000   35.7061500000   28.7065900000
   189      2    0.0000000000   35.7061500000   32.7789600000
   190      2    0.0000000000   35.7061500000   36.8513300000
   191      2    0.0000000000   35.7061500000   40.9237000000
   192      2    0.0000000000   35.7061500000   44.9960700000
   193      2    0.0000000000   35.7061500000   49.0684400000
   194      2    0.0000000000   35.7061500000   53.1408100000
   195      2    0.0000000000   35.7061500000   57.2131800000
   196      2    0.0000000000   35.7061500000   61.2855500000
   197      2    0.0000000000   35.7061500000   65.3579200000
   198      2    0.0000000000   35.7061500000   69.4302900000
   199      2    0.0000000000   35.7061500000   73.5026600000
   200      2    0.0000000000   35.7061500000   77.5750300000
   201      2    0.0000000000   39.6735000000    0.2000000000
   202      2    0.0000000000   39.6735000000    4.2723700000
   203      2    0.0000000000   39.6735000000    8.3447400000
   204      2    0.0000000000   39.6735000000   12.4171100000
   205      2    0.0000000000   39.6735000000   16.4894800000
   206      2    0.0000000000   39.6735000000   20.5618500000
   207      2    0.0000000000   39.6735000000   24.6342200000
   208      2    0.0000000000   39.6735000000   28.7065900000
   209      2    0.0000000000   39.6735000000   32.7789600000
   210      2    0.0000000000   39.6735000000   36.8513300000
   211      2    0.0000000000   39.6735000000   40.9237000000
   212      2    0.0000000000   39.6735000000   44.9960700000
   213      2    0.0000000000   39.6735000000   49.0684400000
   214      2    0.0000000000   39.6735000000   53.1408100000
   215      2    0.0000000000   39.6735000000   57.2131800000
   216      2    0.0000000000   39.6735000000   61.2855500000
   217      2    0.0000000000   39.6735000000   65.3579200000
   218      2    0.0000000000   39.6735000000   69.4302900000
   219      2    0.0000000000   39.6735000000   73.5026600000
   220      2    0.0000000000   39.6735000000   77.5750300000
   221      2    0.0000000000   43.6408500000    0.2000000000
   222      2    0.0000000000   43.6408500000    4.2723700000
   223      2    0.0000000000   43.6408500000    8.3447400000
   224      2    0.0000000000   43.6408500000   12.4171100000
   225      2    0.0000000000   43.6408500000   16.4894800000
   226      2    0.0000000000   43.6408500000   20.5618500000
   227      2    0.0000000000   43.6408500000   24.6342200000
   228      2    0.0000000000   43.6408500000   28.7065900000
   229      2    0.0000000000   43.6408500000   32.7789600000
   230      2    0.0000000000   43.6408500000   36.8513300000
   231      2    0.0000000000   43.6408500000   40.9237000000
   232      2    0.0000000000   43.6408500000   44.9960700000
   233      2    0.0000000000   43.6408500000   49.0684400000
   234      2    0.0000000000   43.6408500000   53.1408100000
   235      2    0.0000000000   43.6408500000   57.2131800000
   236      2    0.0000000000   43.6408500000   61.2855500000
   237      2    0.0000000000   43.6408500000   65.3579200000
   238      2    0.0000000000   43.6408500000   69.4302900000
   239      2    0.0000000000   43.6408500000   73.5026600000
   240      2    0.0000000000   43.6408500000   77.5750300000
   241      2    0.0000000000   47.6082000000    0.2000000000
   242      2    0.0000000000   47.6082000000    4.2723700000
   243      2    0.0000000000   47.6082000000    8.3447400000
   244      2    0.0000000000   47.6082000000   12.4171100000
   245      2    0.0000000000   47.6082000000   16.4894800000
   246      2    0.0000000000   47.6082000000   20.5618500000
   247      2    0.0000000000   47.6082000000   24.6342200000
   248      2    0.0000000000   47.6082000000   28.7065900000
   249      2    0.0000000000   47.6082000000   32.7789600000
   250      2    0.0000000000   47.6082000000   36.8513300000
   251      2    0.0000000000   47.6082000000   40.9237000000
   252      2    0.0000000000   47.6082000000   44.9960700000
   253      2    0.0000000000   47.6082000000   49.0684400000
   254      2    0.0000000000   47.6082000000   53.1408100000
   255      2    0.0000000000   47.6082000000   57.2131800000
   256      2    0.0000000000   47.6082000000   61.2855500000
   257      2    0.0000000000   47.6082000000   65.3579200000
   258      2    0.0000000000   47.6082000000   69.4302900000
   259      2    0.0000000000   47.6082000000   73.5026600000
   260      2    0.0000000000   47.6082000000   77.5750300000
   261      2    0.0000000000   51.5755500000    0.2000000000
   262      2    0.0000000000   51.5755500000    4.2723700000
   263      2    0.0000000000   51.5755500000    8.3447400000
   264      2    0.0000000000   51.5755500000   12.4171100000
   265      2    0.0000000000   51.5755500000   16.4894800000
   266      2    0.0000000000   51.5755500000   20.5618500000
   267      2    0.0000000000   51.5755500000   24.6342200000
   268      2    0.0000000000   51.5755500000   28.7065900000
   269      2    0.0000000000   51.5755500000   32.7789600000
   270      2    0.0000000000   51.5755500000   36.8513300000
   271      2    0.0000000000   51.5755500000   40.9237000000
   272      2    0.0000000000   51.5755500000   44.9960700000
   273      2    0.0000000000   51.5755500000   49.0684400000
   274      2    0.0000000000   51.5755500000   53.1408100000
   275      2    0.0000000000   51.5755500000   57.2131800000
   276      2    0.0000000000   51.5755500000   61.2855500000
   277      2    0.0000000000   51.5755500000   65.3579200000
   278      2    0.0000000000   51.5755500000   69.4302900000
   279      2    0.0000000000   51.5755500000   73.5026600000
   280      2    0.0000000000   51.5755500000   77.5750300000
   281      2    0.0000000000   55.5429000000    0.2000000000
   282      2    0.0000000000   55.5429000000    4.2723700000
   283      2    0.0000000000   55.5429000000    8.3447400000
   284      2    0.0000000000   55.5429000000   12.4171100000
   285      2    0.0000000000   55.5429000000   16.4894800000
   286      2    0.0000000000   55.5429000000   20.5618500000
   287      2    0.0000000000   55.5429000000   24.6342200000
   288      2    0.0000000000   55.5429000000   28.7065900000
   289      2    0.0000000000   55.5429000000   32.7789600000
   290      2    0.0000000000   55.5429000000   36.8513300000
   291      2    0.0000000000   55.5429000000   40.9237000000
   292      2    0.0000000000   55.5429000000   44.9960700000
   293      2    0.0000000000   55.5429000000   49.0684400000
   294      2    0.0000000000   55.5429000000   53.1408100000
   295      2    0.0000000000   55.5429000000   57.2131800000
   296      2    0.0000000000   55.5429000000   61.2855500000
   297      2    0.0000000000   55.5429000000   65.3579200000
   298      2    0.0000000000   55.5429000000   69.4302900000
   299      2    0.0000000000   55.5429000000   73.5026600000
   300      2    0.0000000000   55.5429000000   77.5750300000
   301      2    0.0000000000   59.5102500000    0.2000000000
   302      2    0.0000000000   59.5102500000    4.2723700000
   303      2    0.0000000000   59.5102500000    8.3447400000
   304      2    0.0000000000   59.5102500000   12.4171100000
   305      2    0.0000000000   59.5102500000   16.4894800000
   306      2    0.0000000000   59.5102500000   20.5618500000
   307      2    0.0000000000   59.5102500000   24.6342200000
   308      2    0.0000000000   59.5102500000   28.7065900000
   309      2    0.0000000000   59.5102500000   32.7789600000
   310      2    0.0000000000   59.5102500000   36.8513300000
   311      2    0.0000000000   59.5102500000   40.9237000000
   312      2    0.0000000000   59.5102500000   44.9960700000
   313      2    0.0000000000   59.5102500000   49.0684400000
   314      2    0.0000000000   59.5102500000   53.1408100000
   315      2    0.0000000000   59.5102500000   57.2131800000
   316      2    0.0000000000   59.5102500000   61.2855500000
   317      2    0.0000000000   59.5102500000   65.3579200000
   318      2    0.0000000000   59.5102500000   69.4302900000
   319      2    0.0000000000   59.5102500000   73.5026600000
   320      2    0.0000000000   59.5102500000   77.5750300000
   321      2    0.0000000000   63.4776000000    0.2000000000
   322      2    0.0000000000   63.4776000000    4.2723700000
   323      2    0.0000000000   63.4776000000    8.3447400000
   324      2    0.0000000000   63.4776000000   12.4171100000
   325      2    0.0000000000   63.4776000000   16.4894800000
   326      2    0.0000000000   63.4776000000   20.5618500000
   327      2    0.0000000000   63.4776000000   24.6342200000
   328      2    0.0000000000   63.4776000000   28.7065900000
   329      2    0.0000000000   63.4776000000   32.7789600000
   330      2    0.0000000000   63.4776000000   36.8513300000
   331      2    0.0000000000   63.4776000000   40.9237000000
   332      2    0.0000000000   63.4776000000   44.9960700000
   333      2    0.0000000000   63.4776000000   49.0684400000
   334      2    0.0000000000   63.4776000000   53.1408100000
   335      2    0.0000000000   63.4776000000   57.2131800000
   336      2    0.0000000000   63.4776000000   61.2855500000
   337      2    0.0000000000   63.4776000000   65.3579200000
   338      2    0.0000000000   63.4776000000   69.4302900000
   339      2    0.0000000000   63.4776000000   73.5026600000
   340      2    0.0000000000   63.4776000000   77.5750300000
   341      2    0.0000000000   67.4449500000    0.2000000000
   342      2    0.0000000000   67.4449500000    4.2723700000
   343      2    0.0000000000   67.4449500000    8.3447400000
   344      2    0.0000000000   67.4449500000   12.4171100000
   345      2    0.0000000000   67.4449500000   16.4894800000
   346      2    0.0000000000   67.4449500000   20.5618500000
   347      2    0.0000000000   67.4449500000   24.6342200000
   348      2    0.0000000000   67.4449500000   28.7065900000
   349      2    0.0000000000   67.4449500000   32.7789600000
   350      2    0.0000000000   67.4449500000   36.8513300000
   351      2    0.0000000000   67.4449500000   40.9237000000
   352      2    0.0000000000   67.4449500000   44.9960700000
   353      2    0.0000000000   67.4449500000   49.0684400000
   354      2    0.0000000000   67.4449500000   53.1408100000
   355      2    0.0000000000   67.4449500000   57.2131800000
   356      2    0.0000000000   67.4449500000   61.2855500000
   357      2    0.0000000000   67.4449500000   65.3579200000
   358      2    0.0000000000   67.4449500000   69.4302900000
   359      2    0.0000000000   67.4449500000   73.5026600000
   360      2    0.0000000000   67.4449500000   77.5750300000
   361      2    0.0000000000   71.4123000000    0.2000000000
   362      2    0.0000000000   71.4123000000    4.2723700000
   363      2    0.0000000000   71.4123000000    8.3447400000
   364      2    0.0000000000   71.4123000000   12.4171100000
   365      2    0.0000000000   71.4123000000   16.4894800000
   366      2    0.0000000000   71.4123000000   20.5618500000
   367      2    0.0000000000   71.4123000000   24.6342200000
   368      2    0.0000000000   71.4123000000   28.7065900000
   369      2    0.0000000000   71.4123000000   32.7789600000
   370      2    0.0000000000   71.4123000000   36.8513300000
   371      2    0.0000000000   71.4123000000   40.9237000000
   372      2    0.0000000000   71.4123000000   44.9960700000
   373      2    0.0000000000   71.4123000000   49.0684400000
   374      2    0.0000000000   71.4123000000   53.1408100000
   375      2    0.0000000000   71.4123000000   57.2131800000
   376      2    0.0000000000   71.4123000000   61.2855500000
   377      2    0.0000000000   71.4123000000   65.3579200000
   378      2    0.0000000000   71.4123000000   69.4302900000
   379      2    0.0000000000   71.4123000000   73.5026600000
   380      2    0.0000000000   71.4123000000   77.5750300000
   381      2    0.0000000000   75.3796500000    0.2000000000
   382      2    0.0000000000   75.3796500000    4.2723700000
   383      2    0.0000000000   75.3796500000    8.3447400000
   384      2    0.0000000000   75.3796500000   12.4171100000
   385      2    0.0000000000   75.3796500000   16.4894800000
   386      2    0.0000000000   75.3796500000   20.5618500000
   387      2    0.0000000000   75.3796500000   24.6342200000
   388      2    0.0000000000   75.3796500000   28.7065900000
   389      2    0.0000000000   75.3796500000   32.7789600000
   390      2    0.0000000000   75.3796500000   36.8513300000
   391      2    0.0000000000   75.3796500000   40.9237000000
   392      2    0.0000000000   75.3796500000   44.9960700000
   393      2    0.0000000000   75.3796500000   49.0684400000
   394      2    0.0000000000   75.3796500000   53.1408100000
   395      2    0.0000000000   75.3796500000   57.2131800000
   396      2    0.0000000000   75.3796500000   61.2855500000
   397      2    0.0000000000   75.3796500000   65.3579200000
   398      2    0.0000000000   75.3796500000   69.4302900000
   399      2    0.0000000000   75.3796500000   73.5026600000
   400      2    0.0000000000   75.3796500000   77.5750300000
   401      2    3.9673500000    0.0000000000    0.2000000000
   402      2    3.9673500000    0.0000000000    4.2723700000
   403      2    3.9673500000    0.0000000000    8.3447400000
   404      2    3.9673500000    0.0000000000   12.4171100000
   405      2    3.9673500000    0.0000000000   16.4894800000
   406      2    3.9673500000    0.0000000000   20.5618500000
   407      2    3.9673500000    0.0000000000   24.6342200000
   408      2    3.9673500000    0.0000000000   28.7065900000
   409      2    3.9673500000    0.0000000000   32.7789600000
   410      2    3.9673500000    0.0000000000   36.8513300000
   411      2    3.9673500000    0.0000000000   40.9237000000
   412      2    3.9673500000    0.0000000000   44.9960700000
   413      2    3.9673500000    0.0000000000   49.0684400000
   414      2    3.9673500000    0.0000000000   53.1408100000
   415      2    3.9673500000    0.0000000000   57.2131800000
   416      2    3.9673500000    0.0000000000   61.2855500000
   417      2    3.9673500000    0.0000000000   65.3579200000
   418      2    3.9673500000    0.0000000000   69.4302900000
   419      2    3.9673500000    0.0000000000   73.5026600000
   420      2    3.9673500000    0.0000000000   77.5750300000
   421      2    3.9673500000    3.9673500000    0.2000000000
   422      2    3.9673500000    3.9673500000    4.2723700000
   423      2    3.9673500000    3.9673500000    8.3447400000
   424      2    3.9673500000    3.9673500000   12.4171100000
   425      2    3.9673500000    3.9673500000   16.4894800000
   426      2    3.9673500000    3.9673500000   20.5618500000
   427      2    3.9673500000    3.9673500000   24.6342200000
   428      2    3.9673500000    3.9673500000   28.7065900000
   429      2    3.9673500000    3.9673500000   32.7789600000
   430      2    3.9673500000    3.9673500000   36.8513300000
   431      2    3.9673500000    3.9673500000   40.9237000000
   432      2    3.9673500000    3.9673500000   44.9960700000
   433      2    3.9673500000    3.9673500000   49.0684400000
   434      2    3.9673500000    3.9673500000   53.1408100000
   435      2    3.9673500000    3.9673500000   57.2131800000
   436      2    3.9673500000    3.9673500000   61.2855500000
   437      2    3.9673500000    3.9673500000   65.3579200000
   438      2    3.9673500000    3.9673500000   69.4302900000
   439      2    3.9673500000    3.9673500000   73.5026600000
   440      2    3.9673500000    3.9673500000   77.5750300000
   441      2    3.9673500000    7.9347000000    0.2000000000
   442      2    3.9673500000    7.9347000000    4.2723700000
   443      2    3.9673500000    7.9347000000    8.3447400000
   444      2    3.9673500000    7.9347000000   12.4171100000
   445      2    3.9673500000    7.9347000000   16.4894800000
   446      2    3.9673500000    7.9347000000   20.5618500000
   447      2    3.9673500000    7.9347000000   24.6342200000
   448      2    3.9673500000    7.9347000000   28.7065900000
   449      2    3.9673500000    7.9347000000   32.7789600000
   450      2    3.9673500000    7.9347000000   36.8513300000
   451      2    3.9673500000    7.9347000000   40.9237000000
   452      2    3.9673500000    7.9347000000   44.9960700000
   453      2    3.9673500000    7.9347000000   49.0684400000
   454      2    3.9673500000    7.9347000000   53.1408100000
   455      2    3.9673500000    7.9347000000   57.2131800000
   456      2    3.9673500000    7.9347000000   61.2855500000
   457      2    3.9673500000    7.9347000000   65.3579200000
   458      2    3.9673500000    7.9347000000   69.4302900000
   459      2    3.9673500000    7.9347000000   73.5026600000
   460      2    3.9673500000    7.9347000000   77.5750300000
   461      2    3.9673500000   11.9020500000    0.2000000000
   462      2    3.9673500000   11.9020500000    4.2723700000
   463      2    3.9673500000   11.9020500000    8.3447400000
   464      2    3.9673500000   11.9020500000   12.4171100000
   465      2    3.9673500000   11.9020500000   16.4894800000
   466      2    3.9673500000   11.9020500000   20.5618500000
   467      2    3.9673500000   11.9020500000   24.6342200000
   468      2    3.9673500000   11.9020500000   28.7065900000
   469      2    3.9673500000   11.9020500000   32.7789600000
   470      2    3.9673500000   11.9020500000   36.8513300000
   471      2    3.9673500000   11.9020500000   40.9237000000
   472      2    3.9673500000   11.9020500000   44.9960700000
   473      2    3.9673500000   11.9020500000   49.0684400000
   474      2    3.9673500000   11.9020500000   53.1408100000
   475      2    3.9673500000   11.9020500000   57.2131800000
   476      2    3.9673500000   11.9020500000   61.2855500000
   477      2    3.9673500000   11.9020500000   65.3579200000
   478      2    3.9673500000   11.9020500000   69.4302900000
   479      2    3.9673500000   11.9020500000   73.5026600000
   480      2    3.9673500000   11.9020500000   77.5750300000