9.189594901416441530e+00 0.000000000000000000e+00 0.000000000000000000e+00 -6.333963539798487252e-02 7.595327111640927775e+00 0.000000000000000000e+00 -8.525950922059032100e-02 2.559985263953919871e-02 7.576537019830354325e+00
9.192812508415926231e+00 0.000000000000000000e+00 0.000000000000000000e+00 -6.333963539798487252e-02 7.597986508266640016e+00 0.000000000000000000e+00 -8.525950922059032100e-02 2.559985263953919871e-02 7.579189837370937433e+00
9.200074066170211395e+00 0.000000000000000000e+00 0.000000000000000000e+00 -6.333963539798487252e-02 7.603988286046599043e+00 0.000000000000000000e+00 -8.525950922059032100e-02 2.559985263953919871e-02 7.585176767343366322e+00
9.210552092882535291e+00 0.000000000000000000e+00 0.000000000000000000e+00 -6.333963539798487252e-02 7.612648519845685691e+00 0.000000000000000000e+00 -8.525950922059032100e-02 2.559985263953919871e-02 7.593815576575778437e+00
9.225735072057736019e+00 0.000000000000000000e+00 0.000000000000000000e+00 -6.333963539798487252e-02 7.625197461839197111e+00 0.000000000000000000e+00 -8.525950922059032100e-02 2.559985263953919871e-02 7.606333473721993421e+00
9.245901459114937992e+00 0.000000000000000000e+00 0.000000000000000000e+00 -6.333963539798487252e-02 7.641865259278335820e+00 0.000000000000000000e+00 -8.525950922059032100e-02 2.559985263953919871e-02 7.622960036670489714e+00
9.268012716602882506e+00 0.000000000000000000e+00 0.000000000000000000e+00 -6.333963539798487252e-02 7.660140518989437375e+00 0.000000000000000000e+00 -8.525950922059032100e-02 2.559985263953919871e-02 7.641190085187841596e+00
9.289885569737153403e+00 0.000000000000000000e+00 0.000000000000000000e+00 -6.333963539798487252e-02 7.678218734210786600e+00 0.000000000000000000e+00 -8.525950922059032100e-02 2.559985263953919871e-02 7.659223576683633183e+00
9.311552202133491107e+00 0.000000000000000000e+00 0.000000000000000000e+00 -6.333963539798487252e-02 7.696126505143264573e+00 0.000000000000000000e+00 -8.525950922059032100e-02 2.559985263953919871e-02 7.677087045553127709e+00
9.332010388745008100e+00 0.000000000000000000e+00 0.000000000000000000e+00 -6.333963539798487252e-02 7.713035478944119561e+00 0.000000000000000000e+00 -8.525950922059032100e-02 2.559985263953919871e-02 7.693954188216775236e+00
9.347643626106387771e+00 0.000000000000000000e+00 0.000000000000000000e+00 -6.333963539798487252e-02 7.725956565548453447e+00 0.000000000000000000e+00 -8.525950922059032100e-02 2.559985263953919871e-02 7.706843309324112212e+00
9.357004735318023236e+00 0.000000000000000000e+00 0.000000000000000000e+00 -6.333963539798487252e-02 7.733693651605456409e+00 0.000000000000000000e+00 -8.525950922059032100e-02 2.559985263953919871e-02 7.714561254592295469e+00
9.362309025702931109e+00 0.000000000000000000e+00 0.000000000000000000e+00 -6.333963539798487252e-02 7.738077720871434195e+00 0.000000000000000000e+00 -8.525950922059032100e-02 2.559985263953919871e-02 7.718934478101703967e+00
9.366509182941559430e+00 0.000000000000000000e+00 0.000000000000000000e+00 -6.333963539798487252e-02 7.741549208840503127e+00 0.000000000000000000e+00 -8.525950922059032100e-02 2.559985263953919871e-02 7.722397377951209840e+00
9.371242781781541353e+00 0.000000000000000000e+00 0.000000000000000000e+00 -6.333963539798487252e-02 7.745461593662637867e+00 0.000000000000000000e+00 -8.525950922059032100e-02 2.559985263953919871e-02 7.726300083918058448e+00
9.376287317576673885e+00 0.000000000000000000e+00 0.000000000000000000e+00 -6.333963539798487252e-02 7.749630972171440035e+00 0.000000000000000000e+00 -8.525950922059032100e-02 2.559985263953919871e-02 7.730459147794235264e+00
9.380140395879193349e+00 0.000000000000000000e+00 0.000000000000000000e+00 -6.333963539798487252e-02 7.752815594606794036e+00 0.000000000000000000e+00 -8.525950922059032100e-02 2.559985263953919871e-02 7.733635891787939975e+00
9.381223085434907460e+00 0.000000000000000000e+00 0.000000000000000000e+00 -6.333963539798487252e-02 7.753710452478722814e+00 0.000000000000000000e+00 -8.525950922059032100e-02 2.559985263953919871e-02 7.734528535869611865e+00
9.381480789476485782e+00 0.000000000000000000e+00 0.000000000000000000e+00 -6.333963539798487252e-02 7.753923448428654552e+00 0.000000000000000000e+00 -8.525950922059032100e-02 2.559985263953919871e-02 7.734741004888576299e+00
9.381644797568405636e+00 0.000000000000000000e+00 0.000000000000000000e+00 -6.333963539798487252e-02 7.754059003381359005e+00 0.000000000000000000e+00 -8.525950922059032100e-02 2.559985263953919871e-02 7.734876224491211261e+00
9.379798906425911298e+00 0.000000000000000000e+00 0.000000000000000000e+00 -6.333963539798487252e-02 7.752533348856485595e+00 0.000000000000000000e+00 -8.525950922059032100e-02 2.559985263953919871e-02 7.733354344286611060e+00
9.375357982231207643e+00 0.000000000000000000e+00 0.000000000000000000e+00 -6.333963539798487252e-02 7.748862863671903689e+00 0.000000000000000000e+00 -8.525950922059032100e-02 2.559985263953919871e-02 7.729692939520759865e+00
9.370931036526039648e+00 0.000000000000000000e+00 0.000000000000000000e+00 -6.333963539798487252e-02 7.745203931901817107e+00 0.000000000000000000e+00 -8.525950922059032100e-02 2.559985263953919871e-02 7.726043059587568429e+00
9.368178372117204944e+00 0.000000000000000000e+00 0.000000000000000000e+00 -6.333963539798487252e-02 7.742928816749064858e+00 0.000000000000000000e+00 -8.525950922059032100e-02 2.559985263953919871e-02 7.723773572845416879e+00
9.368648734475657491e+00 0.000000000000000000e+00 0.000000000000000000e+00 -6.333963539798487252e-02 7.743317577734239343e+00 0.000000000000000000e+00 -8.525950922059032100e-02 2.559985263953919871e-02 7.724161372075127652e+00
9.372072110147676938e+00 0.000000000000000000e+00 0.000000000000000000e+00 -6.333963539798487252e-02 7.746147045010974175e+00 0.000000000000000000e+00 -8.525950922059032100e-02 2.559985263953919871e-02 7.726983839528155151e+00
9.379057954100055383e+00 0.000000000000000000e+00 0.000000000000000000e+00 -6.333963539798487252e-02 7.751920941525687780e+00 0.000000000000000000e+00 -8.525950922059032100e-02 2.559985263953919871e-02 7.732743451990091721e+00
9.388062451834455757e+00 0.000000000000000000e+00 0.000000000000000000e+00 -6.333963539798487252e-02 7.759363283272326939e+00 0.000000000000000000e+00 -8.525950922059032100e-02 2.559985263953919871e-02 7.740167382115713757e+00
9.400199273482254370e+00 0.000000000000000000e+00 0.000000000000000000e+00 -6.333963539798487252e-02 7.769394533996426766e+00 0.000000000000000000e+00 -8.525950922059032100e-02 2.559985263953919871e-02 7.750173816512664793e+00
9.416629291965119108e+00 0.000000000000000000e+00 0.000000000000000000e+00 -6.333963539798487252e-02 7.782974171201946234e+00 0.000000000000000000e+00 -8.525950922059032100e-02 2.559985263953919871e-02 7.763719859032565118e+00
9.435928715140828871e+00 0.000000000000000000e+00 0.000000000000000000e+00 -6.333963539798487252e-02 7.798925411017806120e+00 0.000000000000000000e+00 -8.525950922059032100e-02 2.559985263953919871e-02 7.779631637051578785e+00
9.455657942562455176e+00 0.000000000000000000e+00 0.000000000000000000e+00 -6.333963539798487252e-02 7.815231889979802560e+00 0.000000000000000000e+00 -8.525950922059032100e-02 2.559985263953919871e-02 7.795897775388788808e+00
9.472666040314722480e+00 0.000000000000000000e+00 0.000000000000000000e+00 -6.333963539798487252e-02 7.829289317686016325e+00 0.000000000000000000e+00 -8.525950922059032100e-02 2.559985263953919871e-02 7.809920426402186422e+00
9.487157009540338137e+00 0.000000000000000000e+00 0.000000000000000000e+00 -6.333963539798487252e-02 7.841266303898875911e+00 0.000000000000000000e+00 -8.525950922059032100e-02 2.559985263953919871e-02 7.821867782729605700e+00
9.499868411874679452e+00 0.000000000000000000e+00 0.000000000000000000e+00 -6.333963539798487252e-02 7.851772453496315585e+00 0.000000000000000000e+00 -8.525950922059032100e-02 2.559985263953919871e-02 7.832347941147657977e+00
9.507534349363234938e+00 0.000000000000000000e+00 0.000000000000000000e+00 -6.333963539798487252e-02 7.858108456711373258e+00 0.000000000000000000e+00 -8.525950922059032100e-02 2.559985263953919871e-02 7.838668269713942927e+00
9.508447154299854986e+00 0.000000000000000000e+00 0.000000000000000000e+00 -6.333963539798487252e-02 7.858862902599555333e+00 0.000000000000000000e+00 -8.525950922059032100e-02 2.559985263953919871e-02 7.839420849176868877e+00
9.503661369449273977e+00 0.000000000000000000e+00 0.000000000000000000e+00 -6.333963539798487252e-02 7.854907385319704005e+00 0.000000000000000000e+00 -8.525950922059032100e-02 2.559985263953919871e-02 7.835475117457688654e+00
9.495142712736226898e+00 0.000000000000000000e+00 0.000000000000000000e+00 -6.333963539798487252e-02 7.847866597887596107e+00 0.000000000000000000e+00 -8.525950922059032100e-02 2.559985263953919871e-02 7.828451748240317087e+00
9.480697378806919318e+00 0.000000000000000000e+00 0.000000000000000000e+00 -6.333963539798487252e-02 7.835927329878618508e+00 0.000000000000000000e+00 -8.525950922059032100e-02 2.559985263953919871e-02 7.816542016805318127e+00
9.458460738020720626e+00 0.000000000000000000e+00 0.000000000000000000e+00 -6.333963539798487252e-02 7.817548439138048089e+00 0.000000000000000000e+00 -8.525950922059032100e-02 2.559985263953919871e-02 7.798208593633022545e+00
9.430570424918760963e+00 0.000000000000000000e+00 0.000000000000000000e+00 -6.333963539798487252e-02 7.794496710141741502e+00 0.000000000000000000e+00 -8.525950922059032100e-02 2.559985263953919871e-02 7.775213892345448130e+00
9.399733200061113791e+00 0.000000000000000000e+00 0.000000000000000000e+00 -6.333963539798487252e-02 7.769009317876846232e+00 0.000000000000000000e+00 -8.525950922059032100e-02 2.559985263953919871e-02 7.749789553380599827e+00
9.365843551896134045e+00 0.000000000000000000e+00 0.000000000000000000e+00 -6.333963539798487252e-02 7.740999055588351219e+00 0.000000000000000000e+00 -8.525950922059032100e-02 2.559985263953919871e-02 7.721848585724222502e+00
9.329374619393291823e+00 0.000000000000000000e+00 0.000000000000000000e+00 -6.333963539798487252e-02 7.710856979170220171e+00 0.000000000000000000e+00 -8.525950922059032100e-02 2.559985263953919871e-02 7.691781077836853164e+00
9.294014892830524843e+00 0.000000000000000000e+00 0.000000000000000000e+00 -6.333963539798487252e-02 7.681631676781861984e+00 0.000000000000000000e+00 -8.525950922059032100e-02 2.559985263953919871e-02 7.662628075970310704e+00
9.262580518499248683e+00 0.000000000000000000e+00 0.000000000000000000e+00 -6.333963539798487252e-02 7.655650732229002386e+00 0.000000000000000000e+00 -8.525950922059032100e-02 2.559985263953919871e-02 7.636711405717468537e+00
9.236080331946302735e+00 0.000000000000000000e+00 0.000000000000000000e+00 -6.333963539798487252e-02 7.633747962024943767e+00 0.000000000000000000e+00 -8.525950922059032100e-02 2.559985263953919871e-02 7.614862820811502786e+00
9.214798465244138370e+00 0.000000000000000000e+00 0.000000000000000000e+00 -6.333963539798487252e-02 7.616158205253880098e+00 0.000000000000000000e+00 -8.525950922059032100e-02 2.559985263953919871e-02 7.597316579366952816e+00
9.199330931365919284e+00 0.000000000000000000e+00 0.000000000000000000e+00 -6.333963539798487252e-02 7.603374074867184085e+00 0.000000000000000000e+00 -8.525950922059032100e-02 2.559985263953919871e-02 7.584564075661203830e+00
9.190024213398190867e+00 0.000000000000000000e+00 0.000000000000000000e+00 -6.333963539798487252e-02 7.595681943923406010e+00 0.000000000000000000e+00 -8.525950922059032100e-02 2.559985263953919871e-02 7.576890974292886050e+00
9.186695785717622798e+00 0.000000000000000000e+00 0.000000000000000000e+00 -6.333963539798487252e-02 7.592930952473941453e+00 0.000000000000000000e+00 -8.525950922059032100e-02 2.559985263953919871e-02 7.574146788525245810e+00
9.188627744848686163e+00 0.000000000000000000e+00 0.000000000000000000e+00 -6.333963539798487252e-02 7.594527743379331675e+00 0.000000000000000000e+00 -8.525950922059032100e-02 2.559985263953919871e-02 7.575739629127375530e+00
9.195479117398120295e+00 0.000000000000000000e+00 0.000000000000000000e+00 -6.333963539798487252e-02 7.600190497421814406e+00 0.000000000000000000e+00 -8.525950922059032100e-02 2.559985263953919871e-02 7.581388374073497971e+00
9.207408169941901477e+00 0.000000000000000000e+00 0.000000000000000000e+00 -6.333963539798487252e-02 7.610050024111409961e+00 0.000000000000000000e+00 -8.525950922059032100e-02 2.559985263953919871e-02 7.591223509264498404e+00
9.223715330202976403e+00 0.000000000000000000e+00 0.000000000000000000e+00 -6.333963539798487252e-02 7.623528117300446993e+00 0.000000000000000000e+00 -8.525950922059032100e-02 2.559985263953919871e-02 7.604668258976470696e+00
9.243678778701356791e+00 0.000000000000000000e+00 0.000000000000000000e+00 -6.333963539798487252e-02 7.640028183217098423e+00 0.000000000000000000e+00 -8.525950922059032100e-02 2.559985263953919871e-02 7.621127505355092424e+00
9.266336311754773902e+00 0.000000000000000000e+00 0.000000000000000000e+00 -6.333963539798487252e-02 7.658754947228206156e+00 0.000000000000000000e+00 -8.525950922059032100e-02 2.559985263953919871e-02 7.639807941194877827e+00
9.289604349010943452e+00 0.000000000000000000e+00 0.000000000000000000e+00 -6.333963539798487252e-02 7.677986301396740210e+00 0.000000000000000000e+00 -8.525950922059032100e-02 2.559985263953919871e-02 7.658991718885276967e+00
9.311850351567253270e+00 0.000000000000000000e+00 0.000000000000000000e+00 -6.333963539798487252e-02 7.696372929768769744e+00 0.000000000000000000e+00 -8.525950922059032100e-02 2.559985263953919871e-02 7.677332860548141902e+00
9.331624233935833956e+00 0.000000000000000000e+00 0.000000000000000000e+00 -6.333963539798487252e-02 7.712716316660313431e+00 0.000000000000000000e+00 -8.525950922059032100e-02 2.559985263953919871e-02 7.693635815509423992e+00
9.347990001166547103e+00 0.000000000000000000e+00 0.000000000000000000e+00 -6.333963539798487252e-02 7.726242849319518768e+00 0.000000000000000000e+00 -8.525950922059032100e-02 2.559985263953919871e-02 7.707128884857254114e+00
9.360721323739221944e+00 0.000000000000000000e+00 0.000000000000000000e+00 -6.333963539798487252e-02 7.736765463269184018e+00 0.000000000000000000e+00 -8.525950922059032100e-02 2.559985263953919871e-02 7.717625466895766451e+00
9.370275300267655538e+00 0.000000000000000000e+00 0.000000000000000000e+00 -6.333963539798487252e-02 7.744661956828589489e+00 0.000000000000000000e+00 -8.525950922059032100e-02 2.559985263953919871e-02 7.725502425306622456e+00
9.376710907481362156e+00 0.000000000000000000e+00 0.000000000000000000e+00 -6.333963539798487252e-02 7.749981075078142823e+00 0.000000000000000000e+00 -8.525950922059032100e-02 2.559985263953919871e-02 7.730808384581922432e+00
9.380099645116766638e+00 0.000000000000000000e+00 0.000000000000000000e+00 -6.333963539798487252e-02 7.752781913538672853e+00 0.000000000000000000e+00 -8.525950922059032100e-02 2.559985263953919871e-02 7.733602294043337544e+00
9.380782606617435349e+00 0.000000000000000000e+00 0.000000000000000000e+00 -6.333963539798487252e-02 7.753346390651373099e+00 0.000000000000000000e+00 -8.525950922059032100e-02 2.559985263953919871e-02 7.734165374696076789e+00
9.379069125050751410e+00 0.000000000000000000e+00 0.000000000000000000e+00 -6.333963539798487252e-02 7.751930174470540003e+00 0.000000000000000000e+00 -8.525950922059032100e-02 2.559985263953919871e-02 7.732752662094075191e+00
9.375977784534438086e+00 0.000000000000000000e+00 0.000000000000000000e+00 -6.333963539798487252e-02 7.749375138837093502e+00 0.000000000000000000e+00 -8.525950922059032100e-02 2.559985263953919871e-02 7.730203947367245476e+00
9.371973924233865105e+00 0.000000000000000000e+00 0.000000000000000000e+00 -6.333963539798487252e-02 7.746065892997109792e+00 0.000000000000000000e+00 -8.525950922059032100e-02 2.559985263953919871e-02 7.726902888276135251e+00
9.366668559653140491e+00 0.000000000000000000e+00 0.000000000000000000e+00 -6.333963539798487252e-02 7.741680935894243554e+00 0.000000000000000000e+00 -8.525950922059032100e-02 2.559985263953919871e-02 7.722528779125824805e+00
9.360959682433156459e+00 0.000000000000000000e+00 0.000000000000000000e+00 -6.333963539798487252e-02 7.736962470022152871e+00 0.000000000000000000e+00 -8.525950922059032100e-02 2.559985263953919871e-02 7.717821986273542656e+00
9.356650701782946555e+00 0.000000000000000000e+00 0.000000000000000000e+00 -6.333963539798487252e-02 7.733401037998828720e+00 0.000000000000000000e+00 -8.525950922059032100e-02 2.559985263953919871e-02 7.714269364882500035e+00
9.354728280106984428e+00 0.000000000000000000e+00 0.000000000000000000e+00 -6.333963539798487252e-02 7.731812129932062128e+00 0.000000000000000000e+00 -8.525950922059032100e-02 2.559985263953919871e-02 7.712684387618106818e+00
9.355557629697997868e+00 0.000000000000000000e+00 0.000000000000000000e+00 -6.333963539798487252e-02 7.732497598823296237e+00 0.000000000000000000e+00 -8.525950922059032100e-02 2.559985263953919871e-02 7.713368160727102740e+00
9.359991492248351364e+00 0.000000000000000000e+00 0.000000000000000000e+00 -6.333963539798487252e-02 7.736162247461475516e+00 0.000000000000000000e+00 -8.525950922059032100e-02 2.559985263953919871e-02 7.717023743384468837e+00
9.367942411913462664e+00 0.000000000000000000e+00 0.000000000000000000e+00 -6.333963539798487252e-02 7.742733792382684221e+00 0.000000000000000000e+00 -8.525950922059032100e-02 2.559985263953919871e-02 7.723579030950259217e+00
9.377313903891332458e+00 0.000000000000000000e+00 0.000000000000000000e+00 -6.333963539798487252e-02 7.750479459940288862e+00 0.000000000000000000e+00 -8.525950922059032100e-02 2.559985263953919871e-02 7.731305536488166652e+00
9.386481954149274998e+00 0.000000000000000000e+00 0.000000000000000000e+00 -6.333963539798487252e-02 7.758056980105801692e+00 0.000000000000000000e+00 -8.525950922059032100e-02 2.559985263953919871e-02 7.738864310614586906e+00
9.395975663690624202e+00 0.000000000000000000e+00 0.000000000000000000e+00 -6.333963539798487252e-02 7.765903662167936261e+00 0.000000000000000000e+00 -8.525950922059032100e-02 2.559985263953919871e-02 7.746691580758462869e+00
9.408152684897023832e+00 0.000000000000000000e+00 0.000000000000000000e+00 -6.333963539798487252e-02 7.775968138382780559e+00 0.000000000000000000e+00 -8.525950922059032100e-02 2.559985263953919871e-02 7.756731158448630481e+00
9.423495604892554667e+00 0.000000000000000000e+00 0.000000000000000000e+00 -6.333963539798487252e-02 7.788649273673346585e+00 0.000000000000000000e+00 -8.525950922059032100e-02 2.559985263953919871e-02 7.769380921858782152e+00
9.438137654953507649e+00 0.000000000000000000e+00 0.000000000000000000e+00 -6.333963539798487252e-02 7.800751130283416046e+00 0.000000000000000000e+00 -8.525950922059032100e-02 2.559985263953919871e-02 7.781452839666187948e+00
9.447890847094194910e+00 0.000000000000000000e+00 0.000000000000000000e+00 -6.333963539798487252e-02 7.808812278297020626e+00 0.000000000000000000e+00 -8.525950922059032100e-02 2.559985263953919871e-02 7.789494045193587901e+00
9.452580873608990686e+00 0.000000000000000000e+00 0.000000000000000000e+00 -6.333963539798487252e-02 7.812688649989458334e+00 0.000000000000000000e+00 -8.525950922059032100e-02 2.559985263953919871e-02 7.793360827124225843e+00
9.453456132044738780e+00 0.000000000000000000e+00 0.000000000000000000e+00 -6.333963539798487252e-02 7.813412063176273570e+00 0.000000000000000000e+00 -8.525950922059032100e-02 2.559985263953919871e-02 7.794082450657344729e+00
9.451265968493979486e+00 0.000000000000000000e+00 0.000000000000000000e+00 -6.333963539798487252e-02 7.811601862750332970e+00 0.000000000000000000e+00 -8.525950922059032100e-02 2.559985263953919871e-02 7.792276728489624382e+00
9.448406254224357426e+00 0.000000000000000000e+00 0.000000000000000000e+00 -6.333963539798487252e-02 7.809238269408887767e+00 0.000000000000000000e+00 -8.525950922059032100e-02 2.559985263953919871e-02 7.789918982445521500e+00
9.446632623837908582e+00 0.000000000000000000e+00 0.000000000000000000e+00 -6.333963539798487252e-02 7.807772339397222261e+00 0.000000000000000000e+00 -8.525950922059032100e-02 2.559985263953919871e-02 7.788456678999979843e+00
9.443811292276340197e+00 0.000000000000000000e+00 0.000000000000000000e+00 -6.333963539798487252e-02 7.805440469894165290e+00 0.000000000000000000e+00 -8.525950922059032100e-02 2.559985263953919871e-02 7.786130578312715933e+00
9.437766213996631848e+00 0.000000000000000000e+00 0.000000000000000000e+00 -6.333963539798487252e-02 7.800444129202607435e+00 0.000000000000000000e+00 -8.525950922059032100e-02 2.559985263953919871e-02 7.781146598076007059e+00
9.429289806991384637e+00 0.000000000000000000e+00 0.000000000000000000e+00 -6.333963539798487252e-02 7.793438261736489459e+00 0.000000000000000000e+00 -8.525950922059032100e-02 2.559985263953919871e-02 7.774158062437122041e+00
9.419901901722992577e+00 0.000000000000000000e+00 0.000000000000000000e+00 -6.333963539798487252e-02 7.785679028367972876e+00 0.000000000000000000e+00 -8.525950922059032100e-02 2.559985263953919871e-02 7.766418024648110929e+00
9.409721148838471549e+00 0.000000000000000000e+00 0.000000000000000000e+00 -6.333963539798487252e-02 7.777264495493558805e+00 0.000000000000000000e+00 -8.525950922059032100e-02 2.559985263953919871e-02 7.758024308499869015e+00
9.398324342226922923e+00 0.000000000000000000e+00 0.000000000000000000e+00 -6.333963539798487252e-02 7.767844877417716454e+00 0.000000000000000000e+00 -8.525950922059032100e-02 2.559985263953919871e-02 7.748627993631886923e+00
9.384587384021990886e+00 0.000000000000000000e+00 0.000000000000000000e+00 -6.333963539798487252e-02 7.756491091727526488e+00 0.000000000000000000e+00 -8.525950922059032100e-02 2.559985263953919871e-02 7.737302296091011833e+00
9.369223920302713893e+00 0.000000000000000000e+00 0.000000000000000000e+00 -6.333963539798487252e-02 7.743792976765699443e+00 0.000000000000000000e+00 -8.525950922059032100e-02 2.559985263953919871e-02 7.724635595015358014e+00
9.353340106653730501e+00 0.000000000000000000e+00 0.000000000000000000e+00 -6.333963539798487252e-02 7.730664785398523087e+00 0.000000000000000000e+00 -8.525950922059032100e-02 2.559985263953919871e-02 7.711539881502228688e+00
9.337321880550462083e+00 0.000000000000000000e+00 0.000000000000000000e+00 -6.333963539798487252e-02 7.717425500282835138e+00 0.000000000000000000e+00 -8.525950922059032100e-02 2.559985263953919871e-02 7.698333349075006105e+00
9.320420911427529376e+00 0.000000000000000000e+00 0.000000000000000000e+00 -6.333963539798487252e-02 7.703456615867939838e+00 0.000000000000000000e+00 -8.525950922059032100e-02 2.559985263953919871e-02 7.684399022305187010e+00
9.302685882341696910e+00 0.000000000000000000e+00 0.000000000000000000e+00 -6.333963539798487252e-02 7.688798369375221320e+00 0.000000000000000000e+00 -8.525950922059032100e-02 2.559985263953919871e-02 7.669777038871727015e+00
9.285621520566303744e+00 0.000000000000000000e+00 0.000000000000000000e+00 -6.333963539798487252e-02 7.674694438676692876e+00 0.000000000000000000e+00 -8.525950922059032100e-02 2.559985263953919871e-02 7.655707999910352335e+00
9.270205385993216751e+00 0.000000000000000000e+00 0.000000000000000000e+00 -6.333963539798487252e-02 7.661952790526457058e+00 0.000000000000000000e+00 -8.525950922059032100e-02 2.559985263953919871e-02 7.642997873343667870e+00
9.256205427761191373e+00 0.000000000000000000e+00 0.000000000000000000e+00 -6.333963539798487252e-02 7.650381631681531402e+00 0.000000000000000000e+00 -8.525950922059032100e-02 2.559985263953919871e-02 7.631455340406963828e+00
9.243489896535617589e+00 0.000000000000000000e+00 0.000000000000000000e+00 -6.333963539798487252e-02 7.639872069497736007e+00 0.000000000000000000e+00 -8.525950922059032100e-02 2.559985263953919871e-02 7.620971777845507056e+00
9.232495960820022773e+00 0.000000000000000000e+00 0.000000000000000000e+00 -6.333963539798487252e-02 7.630785429782170226e+00 0.000000000000000000e+00 -8.525950922059032100e-02 2.559985263953919871e-02 7.611907617582542862e+00
9.223525337173635208e+00 0.000000000000000000e+00 0.000000000000000000e+00 -6.333963539798487252e-02 7.623371085437369743e+00 0.000000000000000000e+00 -8.525950922059032100e-02 2.559985263953919871e-02 7.604511615595157537e+00
9.216482341906235831e+00 0.000000000000000000e+00 0.000000000000000000e+00 -6.333963539798487252e-02 7.617549952571563310e+00 0.000000000000000000e+00 -8.525950922059032100e-02 2.559985263953919871e-02 7.598704883640454710e+00
9.212108165626311518e+00 0.000000000000000000e+00 0.000000000000000000e+00 -6.333963539798487252e-02 7.613934635461417244e+00 0.000000000000000000e+00 -8.525950922059032100e-02 2.559985263953919871e-02 7.595098510467824582e+00
9.210785618225292737e+00 0.000000000000000000e+00 0.000000000000000000e+00 -6.333963539798487252e-02 7.612841531767651659e+00 0.000000000000000000e+00 -8.525950922059032100e-02 2.559985263953919871e-02 7.594008111004493244e+00
9.212205798315308058e+00 0.000000000000000000e+00 0.000000000000000000e+00 -6.333963539798487252e-02 7.614015330226913569e+00 0.000000000000000000e+00 -8.525950922059032100e-02 2.559985263953919871e-02 7.595179005602471278e+00
9.215908958366803461e+00 0.000000000000000000e+00 0.000000000000000000e+00 -6.333963539798487252e-02 7.617076043156528087e+00 0.000000000000000000e+00 -8.525950922059032100e-02 2.559985263953919871e-02 7.598232146629671391e+00
9.222490264589824349e+00 0.000000000000000000e+00 0.000000000000000000e+00 -6.333963539798487252e-02 7.622515583650895543e+00 0.000000000000000000e+00 -8.525950922059032100e-02 2.559985263953919871e-02 7.603658230236500337e+00
9.233145702941911281e+00 0.000000000000000000e+00 0.000000000000000000e+00 -6.333963539798487252e-02 7.631322450620917408e+00 0.000000000000000000e+00 -8.525950922059032100e-02 2.559985263953919871e-02 7.612443309883936138e+00
9.247404629882234772e+00 0.000000000000000000e+00 0.000000000000000000e+00 -6.333963539798487252e-02 7.643107650679755949e+00 0.000000000000000000e+00 -8.525950922059032100e-02 2.559985263953919871e-02 7.624199354517602778e+00
9.263477417705427541e+00 0.000000000000000000e+00 0.000000000000000000e+00 -6.333963539798487252e-02 7.656392031810858256e+00 0.000000000000000000e+00 -8.525950922059032100e-02 2.559985263953919871e-02 7.637450871396882057e+00
9.281305070916086919e+00 0.000000000000000000e+00 0.000000000000000000e+00 -6.333963539798487252e-02 7.671126833421903157e+00 0.000000000000000000e+00 -8.525950922059032100e-02 2.559985263953919871e-02 7.652149220559757659e+00
9.300984109188616955e+00 0.000000000000000000e+00 0.000000000000000000e+00 -6.333963539798487252e-02 7.687391830359682210e+00 0.000000000000000000e+00 -8.525950922059032100e-02 2.559985263953919871e-02 7.668373979495159531e+00
9.322459328471786932e+00 0.000000000000000000e+00 0.000000000000000000e+00 -6.333963539798487252e-02 7.705141395710840335e+00 0.000000000000000000e+00 -8.525950922059032100e-02 2.559985263953919871e-02 7.686079634168079266e+00
9.344612558300125826e+00 0.000000000000000000e+00 0.000000000000000000e+00 -6.333963539798487252e-02 7.723451346141251506e+00 0.000000000000000000e+00 -8.525950922059032100e-02 2.559985263953919871e-02 7.704344287583234419e+00
9.365173046137766022e+00 0.000000000000000000e+00 0.000000000000000000e+00 -6.333963539798487252e-02 7.740444873318391927e+00 0.000000000000000000e+00 -8.525950922059032100e-02 2.559985263953919871e-02 7.721295774446371496e+00
9.382669894278638623e+00 0.000000000000000000e+00 0.000000000000000000e+00 -6.333963539798487252e-02 7.754906259971294347e+00 0.000000000000000000e+00 -8.525950922059032100e-02 2.559985263953919871e-02 7.735721385052213073e+00
9.397777904386384051e+00 0.000000000000000000e+00 0.000000000000000000e+00 -6.333963539798487252e-02 7.767393238994483085e+00 0.000000000000000000e+00 -8.525950922059032100e-02 2.559985263953919871e-02 7.748177472518221975e+00
9.411187733484370099e+00 0.000000000000000000e+00 0.000000000000000000e+00 -6.333963539798487252e-02 7.778476647959044143e+00 0.000000000000000000e+00 -8.525950922059032100e-02 2.559985263953919871e-02 7.759233462219616406e+00
9.420647911133738006e+00 0.000000000000000000e+00 0.000000000000000000e+00 -6.333963539798487252e-02 7.786295615449712493e+00 0.000000000000000000e+00 -8.525950922059032100e-02 2.559985263953919871e-02 7.767033086354630633e+00
9.425431976674216727e+00 0.000000000000000000e+00 0.000000000000000000e+00 -6.333963539798487252e-02 7.790249711695743429e+00 0.000000000000000000e+00 -8.525950922059032100e-02 2.559985263953919871e-02 7.770977400554969883e+00
9.425107148493024667e+00 0.000000000000000000e+00 0.000000000000000000e+00 -6.333963539798487252e-02 7.789981236718166890e+00 0.000000000000000000e+00 -8.525950922059032100e-02 2.559985263953919871e-02 7.770709589757569979e+00
9.420987931370479629e+00 0.000000000000000000e+00 0.000000000000000000e+00 -6.333963539798487252e-02 7.786576646871011143e+00 0.000000000000000000e+00 -8.525950922059032100e-02 2.559985263953919871e-02 7.767313422531930911e+00
9.414119358859050379e+00 0.000000000000000000e+00 0.000000000000000000e+00 -6.333963539798487252e-02 7.780899676823359812e+00 0.000000000000000000e+00 -8.525950922059032100e-02 2.559985263953919871e-02 7.761650496748437433e+00
9.405453487549415570e+00 0.000000000000000000e+00 0.000000000000000000e+00 -6.333963539798487252e-02 7.773737214493650072e+00 0.000000000000000000e+00 -8.525950922059032100e-02 2.559985263953919871e-02 7.754505753645729804e+00
9.396718404543184633e+00 0.000000000000000000e+00 0.000000000000000000e+00 -6.333963539798487252e-02 7.766517547741226046e+00 0.000000000000000000e+00 -8.525950922059032100e-02 2.559985263953919871e-02 7.747303947638493504e+00
9.388205549778740888e+00 0.000000000000000000e+00 0.000000000000000000e+00 -6.333963539798487252e-02 7.759481555699514921e+00 0.000000000000000000e+00 -8.525950922059032100e-02 2.559985263953919871e-02 7.740285361948586740e+00