8.249255849299999555e-02 3.836259303229000217e+00 3.633897294271999812e+00 4.719290543554000017e+00 7.541307695250000442e+00 3.412754809199999850e-02 4.604135209184000210e+00 7.582964349167999885e+00 3.723960461484999929e+00 4.867793412273999643e+00 3.729124045528999787e+00 3.698291191117999865e+00 5.078683528630000277e-01 5.878031914100000088e-02 2.732391679680000185e-01 6.001103207800000394e-01 3.898586131199999888e-02 3.617319072901000077e+00 3.295472328380000260e-01 3.782949891242000096e+00 1.242499612149999960e-01 5.262887341082000070e+00 3.706334525717000172e+00 8.073230221799999884e-02 2.535241113177999939e+00 1.914510409557000026e+00 1.807388515149999986e+00 2.454638605087999803e+00 5.604699100330000405e+00 1.828548571955999957e+00 7.216495214533999558e+00 1.847044171497999931e+00 1.839811380942999897e+00 7.180061009196999855e+00 5.745265383397000214e+00 1.814554260143999898e+00 2.370107467089999975e+00 1.957511719843000098e+00 5.703020733672000020e+00 2.320979771464999786e+00 5.654758915743999914e+00 5.708528417182000325e+00 7.246725682207999952e+00 1.853558072501999998e+00 5.643637905709000258e+00 7.217678269623999832e+00 5.761164063693000159e+00 5.688510530360000317e+00 1.856358074555999993e+00 1.972348883648000095e+00 7.552147992500000129e+00 8.922801618832000514e+00 1.688260677703000034e+00 1.982521376141000102e+00 2.325880919933000168e+00 1.071908793579999936e-01 1.995981180100999897e+00 2.230348064144000109e+00 2.195588321294999812e+00 3.751565951919999975e+00 9.051300521370000851e+00 1.677903775481000004e+00 5.467472800278000200e+00 2.161797215049999998e+00 1.097885694760000058e-01 5.526040319030999903e+00 1.997864826263000104e+00 6.041534457548999981e+00 7.566409250193999902e+00 8.938678597702999440e+00 5.895519969183999898e+00 1.863696347240000106e+00 1.914856496112999906e+00 3.894373932405999827e+00 1.786836893365000067e+00 2.099073956633000115e+00 5.743486989781000140e+00 3.788073756345999854e+00 8.990430708636999668e+00 5.925047716222000105e+00 5.648022001866999986e+00 1.660629113219000086e+00 3.907301702044999825e+00 5.778614477016000173e+00 6.782922051174000266e+00 1.815717173441000032e+00 7.518349619028000141e+00 4.292265847738000240e+00 2.050490141776000197e+00 1.694992408757000080e+00 6.500565760249999769e+00 7.527683944860999787e+00 1.905261730617000104e+00 6.657195672791000440e+00 1.813788702691000010e+00 3.842652294576000216e+00 4.220624315864999865e+00 2.098131784877999895e+00 5.839934492889000239e+00 6.460669831171999888e+00 7.551712767300999829e+00 5.678308119239999563e+00 6.654424796197999648e+00 5.604111324880999945e+00 7.537878550234999864e+00 4.238345128345000212e+00 5.549831866848999873e+00 1.854524599671999896e+00 6.942575958317999785e+00 3.740454761812999962e+00 1.936546353590999914e+00 6.721709797203000214e+00 5.647951475730000226e+00 3.793349901934000012e+00 4.153820737484999803e+00 5.560820413165999732e+00 5.683888847213999895e+00 6.927097661900999626e+00 3.804945004393000207e+00 5.659999502579999842e+00
9.664716914500000311e-02 3.835786403063000005e+00 3.651180845938999830e+00 4.722230483567000370e+00 7.531210942440999645e+00 6.463734058499999435e-02 4.549563918219999614e+00 7.599378283996999883e+00 3.717110682968999935e+00 4.909681461567999783e+00 3.682983018165999933e+00 3.707531640756999813e+00 5.455362837799999642e-01 1.457442883270000100e-01 2.137257707490000103e-01 6.013199344149999792e-01 2.169455552499999912e-02 3.635862096378000174e+00 2.498312664550000062e-01 3.773117518039000196e+00 1.280042500509999959e-01 5.235008542025999745e+00 3.787993607189999778e+00 7.568695991026999970e+00 2.594163321367000119e+00 1.941182681134000054e+00 1.809417504060000015e+00 2.459072222850999800e+00 5.597775447879000055e+00 1.871027335199000108e+00 7.202383852042999912e+00 1.906345298453000048e+00 1.833696427400999918e+00 7.213146464919000245e+00 5.705891692484000188e+00 1.790350737924000013e+00 2.360352552047999986e+00 1.945096038176999942e+00 5.677498846195000226e+00 2.324178093641000142e+00 5.690671468945000200e+00 5.705300978430000391e+00 7.234734897887999949e+00 1.834909011107000110e+00 5.603659105383999695e+00 7.208966941978999898e+00 5.752080588402000316e+00 5.725831892948000323e+00 1.861520216224000102e+00 2.111718038320999913e+00 7.551660301857999968e+00 8.883218242131999176e+00 1.697077644183000000e+00 2.039316615590000215e+00 2.355383421326000093e+00 1.220775838389999979e-01 1.934968613117999947e+00 2.304038268673000101e+00 2.292195484062999888e+00 3.678444143092999941e+00 9.054158770728999883e+00 1.632559155867000067e+00 5.466532868302000026e+00 2.237774376422999811e+00 1.626492701009999986e-01 5.492376325698000272e+00 1.978804321047000103e+00 6.066673159149000405e+00 7.510530835912000214e+00 8.985734886490000406e+00 5.930968890633000257e+00 1.871794481478999961e+00 1.930913649917999964e+00 3.934493615188999982e+00 1.777885270327999923e+00 2.138541026966000125e+00 5.716860400405000320e+00 3.838376122786999911e+00 9.017195327754999212e+00 5.979527167428000389e+00 5.647032301474999905e+00 1.542462407164999938e+00 4.000153763678000018e+00 5.720637439943000224e+00 6.920032714917000227e+00 1.700653910802000013e+00 1.383699711999999971e-02 4.269377571916000313e+00 2.038762095455000090e+00 1.597868373043999979e+00 6.443586840502000257e+00 7.506159253406000431e+00 1.997719370188000054e+00 6.493670889869999741e+00 1.827744335075000004e+00 3.915721653956000026e+00 4.282150214589999671e+00 2.034077290342000133e+00 5.927797992521999682e+00 6.405393611617999916e+00 7.527136669343000186e+00 5.618812837143999595e+00 6.675149922664999735e+00 5.523465691158000013e+00 7.509585925155000119e+00 4.251257483666000425e+00 5.533255344982999979e+00 1.876825324486000035e+00 6.891262842134000088e+00 3.771887469054000075e+00 1.893340952770999897e+00 6.719595700063000443e+00 5.605122840638999904e+00 3.766958231635999965e+00 4.202152792009999693e+00 5.611562525665999779e+00 5.698351826723000002e+00 6.945620974312999962e+00 3.807394958610999858e+00 5.747508238611000131e+00
1.121703061150000069e-01 3.840245145512999780e+00 3.667618982885000101e+00 4.727293051232999588e+00 7.522754485959000093e+00 9.455643117900000560e-02 4.498824923519999963e+00 7.613697494124999743e+00 3.711969358041999900e+00 4.947123617729999978e+00 3.648414006868000214e+00 3.719070166498999797e+00 5.801291683699999480e-01 2.254296999859999873e-01 1.608413193359999882e-01 5.321669632219999668e-01 7.605198364541999823e+00 3.645339766025999850e+00 1.807418981059999985e-01 3.771514542980999973e+00 1.280425639380000091e-01 5.275917514790999796e+00 3.833158831316000104e+00 7.486370024253999667e+00 2.605938358312999803e+00 1.973504425290999897e+00 1.800114038942000061e+00 2.466296615122999913e+00 5.624234987736000058e+00 1.899929463889000081e+00 7.172860701393999783e+00 1.929802994274999905e+00 1.829741603186999965e+00 7.252779234540000175e+00 5.703013332861000428e+00 1.797290002805000064e+00 2.364502442302999885e+00 1.960934020172000025e+00 5.666812884551999829e+00 2.333491863099999897e+00 5.725044570454000059e+00 5.714446938922000285e+00 7.225940178021000193e+00 1.809461287571999977e+00 5.589589966575999824e+00 7.205140341228999823e+00 5.755134791815000206e+00 5.740982796275999611e+00 1.878486632490000030e+00 2.202088622614000180e+00 7.504129850053000261e+00 8.875382719465999770e+00 1.726988723931000003e+00 2.102595618571000191e+00 2.406639948172999866e+00 1.385005048110000136e-01 1.890713586069000085e+00 2.402261466029000037e+00 2.362252998724999831e+00 3.694271539593999787e+00 9.026951365812999839e+00 1.609011867783999961e+00 5.459521155213000299e+00 2.310748007858999920e+00 1.486199856410000131e-01 5.449926850617000440e+00 1.982427493420999998e+00 6.087760207598999607e+00 7.526018527784000156e+00 8.969406107029000097e+00 5.940503205198999659e+00 1.873735074288999991e+00 1.934668044893999905e+00 3.918326196967000019e+00 1.762766385439000105e+00 2.165632618126999809e+00 5.711810103936000083e+00 3.770252756925999815e+00 9.009935302700000648e+00 6.042634676259000415e+00 5.652505593725999589e+00 1.462709172857999951e+00 3.989029406614000184e+00 5.687567836113999853e+00 6.990900313679000000e+00 1.634597808035000099e+00 1.633179142499999875e-02 4.359565891961000084e+00 2.049562977657000129e+00 1.524225675253999990e+00 6.436086086610999679e+00 7.496333865090000437e+00 2.049074659987999869e+00 6.379344639812000395e+00 1.852068738607999920e+00 3.897150693048000214e+00 4.231408973981999999e+00 1.988599188145999896e+00 5.972662414526999974e+00 6.387762490031000162e+00 7.538957364723000154e+00 5.595995213833999671e+00 6.694418896234999750e+00 5.505402591598000051e+00 7.546421273217999826e+00 4.236522446140999598e+00 5.519507432886999965e+00 1.896593761214000029e+00 6.871454516090000020e+00 3.771890516936000193e+00 1.860918566777000072e+00 6.750422260538000430e+00 5.548446576604000313e+00 3.787597540161999898e+00 4.219222395575999762e+00 5.646961288805999679e+00 5.720097401976000029e+00 6.992382037712999932e+00 3.705590686518000165e+00 5.803278633677999565e+00
1.278346304590000093e-01 3.848822143545000074e+00 3.680676327671000170e+00 4.734859729295999742e+00 7.515497499922999758e+00 1.239637682209999980e-01 4.452906964234999876e+00 7.624971413079999927e+00 3.708242279858000146e+00 4.974874921826000218e+00 3.630747510457000171e+00 3.731106786004999787e+00 6.055349351059999830e-01 2.943480547169999850e-01 1.175719000989999957e-01 5.166279642359999924e-01 7.592500980674000033e+00 3.642914840527000209e+00 1.265547484729999950e-01 3.776304878502000140e+00 1.243611670129999985e-01 5.291014564453999647e+00 3.856882174842000133e+00 7.420796516810000298e+00 2.608385638322999966e+00 2.019965126029000135e+00 1.771174794625000048e+00 2.473914840322999797e+00 5.661162006958000426e+00 1.903213202279999905e+00 7.138871821858000288e+00 1.909238750936999907e+00 1.830038044276999898e+00 7.270870166022000092e+00 5.740142293442000110e+00 1.839494852452000062e+00 2.379238037154999930e+00 2.003673057673999836e+00 5.670710604981000102e+00 2.344367441181999911e+00 5.747911670667999573e+00 5.734575402665999633e+00 7.217457098201999877e+00 1.772806797939999957e+00 5.598231615515000037e+00 7.206344024926999658e+00 5.769328513111999790e+00 5.732136537366000262e+00 1.896890341758000087e+00 2.215162415157999831e+00 7.455876868354000209e+00 8.873527919479000658e+00 1.775262389624999937e+00 2.165213005518999978e+00 2.462181409962000078e+00 1.781023782210000017e-01 1.869495372445000081e+00 2.518357770244000093e+00 2.383766425695000191e+00 3.760208956318999984e+00 9.006021741614999243e+00 1.595635346614999950e+00 5.431598562081999759e+00 2.353251308283999865e+00 7.873452382699999696e-02 5.399789374703999556e+00 2.010208067348000061e+00 6.096167787194000098e+00 7.562155243399000248e+00 8.953557642940999983e+00 5.931326713148999730e+00 1.871610909646000076e+00 1.925800725099999999e+00 3.878882305713999834e+00 1.741658430333000052e+00 2.171892146040999894e+00 5.735726324867999715e+00 3.687331869459999911e+00 8.953199443891000087e+00 6.105339537429999908e+00 5.666168304424999747e+00 1.470059043386999997e+00 3.951803426564000077e+00 5.690502167508999953e+00 6.989898656221999573e+00 1.615615397008999921e+00 7.541699954313999754e+00 4.445472482623999966e+00 2.082644194373000079e+00 1.497959956017000049e+00 6.485394217258999561e+00 7.481446745443999902e+00 2.050193006580999899e+00 6.372181998001000380e+00 1.848731694602999909e+00 3.825211080448000178e+00 4.117057952395000164e+00 1.983472129814999985e+00 5.969989651565000166e+00 6.409333294766000222e+00 7.537964077172000010e+00 5.613590338871000007e+00 6.805278521400000002e+00 5.534515977794000285e+00 4.448524696000000396e-03 4.206530297078000302e+00 5.515992980600000095e+00 1.908717754760000052e+00 6.889364918202000254e+00 3.745409689994999791e+00 1.842719486450999922e+00 6.821848473941999558e+00 5.478278338065000419e+00 3.874978692066000097e+00 4.181687141942999730e+00 5.651467885679999803e+00 5.745146248523999688e+00 7.057525907754000016e+00 3.608917865718999973e+00 5.823665856000999952e+00
1.421931666969999952e-01 3.860525980459999840e+00 3.689719877977999829e+00 4.746252554802000034e+00 7.511111498690000055e+00 1.520886341330000002e-01 4.413183746906000238e+00 7.636037194714000442e+00 3.706802022090999849e+00 4.993118711913999697e+00 3.631351457250000081e+00 3.742735790654000194e+00 6.157334069869999649e-01 3.470006212940000001e-01 8.374555221899999957e-02 4.919714341429999860e-01 7.587338977825999642e+00 3.630949548449000197e+00 8.533346068000000062e-02 3.785571731831999909e+00 1.191474723470000024e-01 5.286270379505999983e+00 3.861206261876999779e+00 7.384039542263000300e+00 2.632656093535000075e+00 2.087618182019999935e+00 1.728462828282999908e+00 2.469827508334000221e+00 5.687563109501000191e+00 1.875228997662000019e+00 7.123096749821000273e+00 1.858565504423000059e+00 1.836666276968000000e+00 7.256102601260000284e+00 5.797944909411000047e+00 1.901627695029999954e+00 2.380815923556999891e+00 2.055518893033000172e+00 5.678636238499000122e+00 2.347603442113999961e+00 5.761159376574999769e+00 5.763013179409999687e+00 7.218547155028000262e+00 1.724792445007000019e+00 5.618058628196999749e+00 7.207649687398999916e+00 5.789965665810999695e+00 5.718979429840000073e+00 1.897615681970000079e+00 2.145543317290000029e+00 7.495413539247000045e+00 8.845396022280999304e+00 1.823614232678999914e+00 2.208847039267999968e+00 2.507840152528999944e+00 2.391615423800000084e-01 1.868472245910000051e+00 2.636835820850000012e+00 2.357721500223000088e+00 3.781414995648999966e+00 9.019876618106000166e+00 1.579913637812000005e+00 5.382354351126999781e+00 2.355828178837000131e+00 3.648738183900000071e-02 5.358690259629000252e+00 2.053616201852999978e+00 6.091706609623000368e+00 7.575139403558000417e+00 8.996040030265000098e+00 5.921780562444999951e+00 1.875267748810999890e+00 1.913528270262000008e+00 3.856242102986000120e+00 1.721053449630000065e+00 2.148543133242000192e+00 5.776276096382000347e+00 3.694402868807999951e+00 8.933420797807999136e+00 6.164862229671999927e+00 5.686755373636000144e+00 1.570729975811000045e+00 3.948282101825999924e+00 5.725291655476000052e+00 7.068321376500000142e+00 1.582942556826999914e+00 7.494592194232000182e+00 4.449350317604999994e+00 2.130343345410000033e+00 1.520530155841000042e+00 6.568403250984999886e+00 7.465655564172999803e+00 2.019289828248000074e+00 6.471541306782000014e+00 1.792976246098999971e+00 3.748484968960000163e+00 4.123601166471999591e+00 2.023876135736999871e+00 5.959300125368000245e+00 6.426018005345000006e+00 7.503183098612000279e+00 5.647403009871999835e+00 6.833342600083000207e+00 5.636854598922999671e+00 2.081413101599999954e-02 4.206892856936000236e+00 5.531270490157999653e+00 1.912083196683999953e+00 6.935693447342999640e+00 3.711115727613000015e+00 1.838836274461999931e+00 6.910018203575000406e+00 5.406010082515999571e+00 3.952238050088999977e+00 4.140966307911000399e+00 5.615259548670000100e+00 5.769467034052000010e+00 7.115689356142000044e+00 3.625262754272999821e+00 5.820581564995999990e+00
1.536260748230000028e-01 3.874847701215999862e+00 3.695175728680000216e+00 4.761061267822999987e+00 7.510582928112000012e+00 1.770092301310000060e-01 4.378530947880999946e+00 7.649249428013000340e+00 3.708432596883000087e+00 5.006531293881000266e+00 3.645600788252000068e+00 3.753539121311999960e+00 6.044068537260000040e-01 3.722580919810000166e-01 6.130141562299999680e-02 4.615990570649999847e-01 7.592453461845999563e+00 3.610859588190999947e+00 5.001505002000000005e-02 3.799718984155000090e+00 1.166579302340000068e-01 5.273396746271999724e+00 3.853820426048999881e+00 7.380858215435999625e+00 2.678561905846000180e+00 2.160811007710000009e+00 1.686718596663999925e+00 2.448953083375999817e+00 5.701584022069999591e+00 1.838688854404999962e+00 7.140752117767999785e+00 1.808598390982000037e+00 1.853754125830999966e+00 7.247694543717999593e+00 5.840021934562999562e+00 1.958628674267000047e+00 2.372527387628999840e+00 2.103144076382000183e+00 5.687613869825000279e+00 2.339466318362000141e+00 5.772313630119000116e+00 5.790142907475000378e+00 7.239364179546999623e+00 1.680060392944999981e+00 5.637709086643000411e+00 7.215748120061999948e+00 5.808476073858000355e+00 5.726007581412999592e+00 1.884011076498999904e+00 2.015813672216999919e+00 7.575798592012000121e+00 8.808384831531000714e+00 1.843283253772999952e+00 2.219802757247999914e+00 2.538420333102000104e+00 2.814460874120000011e-01 1.884121636493000018e+00 2.728147976643000128e+00 2.301779749265000063e+00 3.750751207700000034e+00 9.050403361584999473e+00 1.564254646156000073e+00 5.328535365826000181e+00 2.329498456774000026e+00 8.958087851800000667e-02 5.353924427644000339e+00 2.096049709577000097e+00 6.092106047521999912e+00 7.597230524893999970e+00 9.040057130886999914e+00 5.917719567924000224e+00 1.894906563598999893e+00 1.903103070510999917e+00 3.896707736064000116e+00 1.708165435294999979e+00 2.108036737038999853e+00 5.806685080914999908e+00 3.746187749634999786e+00 8.993647043305999844e+00 6.215289597575999636e+00 5.712500827651999735e+00 1.719230354843999997e+00 3.958616573210000045e+00 5.778893796982999653e+00 7.124723432735000195e+00 1.552160713679000104e+00 7.511735378445999700e+00 4.411898484754999572e+00 2.187992490440000104e+00 1.564657646052000084e+00 6.633884505247999996e+00 7.489718426059999601e+00 1.986746398391999957e+00 6.613948033586000363e+00 1.706263895416000098e+00 3.720924134137999939e+00 4.253900146072999711e+00 2.099439043518000148e+00 5.961706544449000056e+00 6.388778287140000067e+00 7.492089479359999693e+00 5.661934116529000249e+00 6.850224063856000356e+00 5.748575577316000107e+00 2.577548476000000172e-02 4.233221876006999729e+00 5.567885099687999606e+00 1.910919351590999904e+00 6.984361605350000168e+00 3.685372773696999893e+00 1.840434395731999961e+00 6.978698939514000443e+00 5.348027414280999814e+00 3.896831077003000132e+00 4.160620994090000302e+00 5.546162387540999994e+00 5.789975214158999961e+00 7.154436658072000021e+00 3.693088740278999804e+00 5.802655933871999849e+00
1.603621147360000110e-01 3.890166423591999934e+00 3.696192728620999901e+00 4.776769471776000309e+00 7.512880555631999968e+00 1.967728822320000126e-01 4.346167160021000342e+00 7.663881339345000043e+00 3.712402936498000017e+00 5.018249351554000093e+00 3.667625005286999862e+00 3.762563888189999872e+00 5.620804852349999825e-01 3.553647166630000132e-01 5.373967815300000062e-02 4.303062287919999784e-01 7.607580021710999674e+00 3.582207185162999963e+00 1.293300205799999963e-02 3.817268069087000004e+00 1.226302080769999941e-01 5.259437580052000349e+00 3.838979546055000025e+00 7.408017736351999893e+00 2.718407839633000034e+00 2.211041239561000182e+00 1.664227608720999951e+00 2.424316707256000125e+00 5.713508855384000107e+00 1.820929730640000077e+00 7.184401539269000381e+00 1.783764407115999928e+00 1.876533417629999922e+00 7.273915529192000129e+00 5.842207140162999579e+00 1.995517041900999988e+00 2.388611254921999993e+00 2.132606717753000147e+00 5.699529014447000108e+00 2.332672006435999812e+00 5.793033665939000265e+00 5.802651491537000439e+00 7.278270218760000354e+00 1.649960608338000068e+00 5.651617252461000440e+00 7.240805509031000398e+00 5.818850707689000146e+00 5.751780525193000315e+00 1.881113626989000087e+00 1.889155444977000053e+00 7.574865732113999606e+00 8.841752278652000641e+00 1.819765498401999970e+00 2.203879091572999993e+00 2.557934975108000053e+00 2.827728514969999885e-01 1.913696605334000100e+00 2.757931759438999819e+00 2.247229853457000104e+00 3.733193809578000177e+00 9.072784054633000750e+00 1.562288447839000005e+00 5.293882480997000428e+00 2.294369100414999973e+00 2.058515866070000089e-01 5.410255516603999837e+00 2.122868037569999977e+00 6.112531405282999764e+00 7.635962850095999954e+00 9.038112351402000755e+00 5.919665662727999766e+00 1.930972741134000081e+00 1.893521147955999906e+00 3.995521333650000173e+00 1.699370836938999929e+00 2.069385190138000041e+00 5.809809033981999882e+00 3.795397062435000191e+00 9.049136121825000600e+00 6.227248266326999904e+00 5.742764243375000355e+00 1.844577961711000080e+00 3.952720795057000025e+00 5.840549870257000009e+00 7.159717815662999918e+00 1.524476253947999904e+00 7.553026443444999849e+00 4.431517803090000207e+00 2.256170768316000164e+00 1.594036939246000095e+00 6.644937675716000136e+00 7.558942243163000008e+00 1.970381926121999916e+00 6.730906709689000067e+00 1.629101840092000097e+00 3.791608397862999968e+00 4.324986749528999752e+00 2.194605660700000183e+00 5.961754042517999785e+00 6.304331354768000217e+00 7.516984301251000034e+00 5.636663609681000331e+00 6.774147618812000005e+00 5.859196555643999993e+00 7.638030314137999710e+00 4.230522299378000284e+00 5.619755072383999739e+00 1.910846363014000016e+00 7.011541687879000229e+00 3.679922910065999808e+00 1.832130669661000022e+00 7.024063338430999615e+00 5.348196735336999907e+00 3.776566302333999925e+00 4.187829831740000230e+00 5.477827545665999942e+00 5.803076647242000341e+00 7.176999023941999845e+00 3.734543985105000186e+00 5.783205953093999874e+00
1.619163571739999918e-01 3.904018472769000159e+00 3.693302650746999927e+00 4.791860042155000166e+00 7.517859792220000337e+00 2.097567216610000118e-01 4.315611328170000149e+00 7.679302444035999820e+00 3.718267420597999973e+00 5.029318425885000110e+00 3.694466933474000125e+00 3.769841581661999896e+00 4.857717178009999803e-01 2.932480508779999884e-01 6.182438266200000060e-02 4.025953355360000208e-01 7.635361576540000250e+00 3.547489078517000127e+00 -2.819547360200000061e-02 3.834058864431999947e+00 1.382277279159999928e-01 5.248432139949000153e+00 3.819114406290000208e+00 7.460406109363000304e+00 2.732629158708999917e+00 2.219659538051999892e+00 1.662781797325999955e+00 2.410756054783000035e+00 5.746877040764999833e+00 1.830328964458000085e+00 7.246140644850999735e+00 1.787257139052000010e+00 1.899150495870000066e+00 7.317898312548999584e+00 5.820733095061999762e+00 2.000231702134000145e+00 2.443262808505000105e+00 2.135845933731999935e+00 5.714126156526999623e+00 2.337938671774999921e+00 5.826413029950000322e+00 5.798138225620999897e+00 7.327988498132000039e+00 1.634127745170999901e+00 5.663142191312999785e+00 7.276614677176000079e+00 5.823450431621999712e+00 5.786762056590999848e+00 1.915830066492000050e+00 1.830203772801999973e+00 7.525289119064000332e+00 8.971037413582999775e+00 1.763179053992000034e+00 2.170365450989999889e+00 2.571547667679999982e+00 2.705614373590000121e-01 1.948289235787999951e+00 2.719260503076000202e+00 2.233900681579000125e+00 3.722052257160000099e+00 9.092267698478000426e+00 1.579417102315999966e+00 5.292939565435999860e+00 2.268249188056000065e+00 2.675264843519999935e-01 5.511940575881999926e+00 2.125645289967000195e+00 6.157273804469999945e+00 7.650752421864999597e+00 9.024463800772000610e+00 5.928627414854999778e+00 1.969908515933000093e+00 1.881232468481000009e+00 4.047546944369999622e+00 1.684439202489000031e+00 2.040229818483000113e+00 5.797255711899000019e+00 3.848114838647000102e+00 9.051632277950000471e+00 6.188211028706000150e+00 5.776433820778000161e+00 1.888509805820999921e+00 3.977948248645999829e+00 5.905203490060999982e+00 7.180024178986999850e+00 1.509542701790999919e+00 7.584089011684000070e+00 4.513617549543000429e+00 2.326859605467999970e+00 1.592118426562999955e+00 6.610082059975000313e+00 7.601763056233999727e+00 1.974993607754000013e+00 6.786730287185999799e+00 1.607270944339999952e+00 3.903351941123000213e+00 4.281348474555000116e+00 2.291419194791000091e+00 5.954394224597000296e+00 6.232459172645000045e+00 7.517484610797000144e+00 5.584094849721999765e+00 6.792206923442999589e+00 5.893278620804999868e+00 7.579172539592000213e+00 4.180009369171999722e+00 5.669764922308000443e+00 1.920506185332000015e+00 7.019319491770000141e+00 3.694227888859999975e+00 1.807315946052000077e+00 7.047738676255000279e+00 5.421609526040000127e+00 3.736107546678999913e+00 4.153126708181999582e+00 5.450969720647999672e+00 5.805696449268999970e+00 7.191909332257999665e+00 3.758012962501000143e+00 5.769735364247000398e+00
1.602121628300000045e-01 3.914685499776000110e+00 3.689258561642999812e+00 4.806058695534000336e+00 7.526602645740999797e+00 2.144542480399999895e-01 4.288950331470999799e+00 7.696055447127999827e+00 3.726678960282999942e+00 5.040144556456000124e+00 3.725984530238000136e+00 3.775774393789999905e+00 3.935277684699999834e-01 2.036357457059999876e-01 8.248499915099999358e-02 3.825627302290000031e-01 7.677861919278999636e+00 3.513535996113000159e+00 9.244544506892999891e+00 3.846927985873000111e+00 1.583079745909999891e-01 5.242467100655000323e+00 3.796747333493000198e+00 7.532445344624999706e+00 2.734277587393000086e+00 2.187373748839999799e+00 1.674095730327999965e+00 2.400382723180999989e+00 5.808666065695000214e+00 1.853579964511000044e+00 7.335806606392000440e+00 1.802956641321999953e+00 1.918316757613000023e+00 7.346124548778999674e+00 5.795852512847000426e+00 1.972754415377000026e+00 2.518179341330000209e+00 2.125285702785999931e+00 5.729605717992999558e+00 2.349832772686000215e+00 5.866431751891999724e+00 5.786733797605999818e+00 7.382393930046999841e+00 1.629768498630999929e+00 5.682955610308000338e+00 7.308580539621999606e+00 5.823565984820000097e+00 5.816438786219999990e+00 1.981630292131999926e+00 1.847072451944999916e+00 7.540803723207999631e+00 9.098142323805999965e+00 1.697875824021999991e+00 2.118029766184999829e+00 2.578276655234999826e+00 2.708253476870000065e-01 1.974501029487000014e+00 2.633450505169999900e+00 2.274746727566999915e+00 3.686932799907999936e+00 9.133132770427000224e+00 1.605076159725999929e+00 5.326115250924000399e+00 2.269707213990999950e+00 2.008222983440000053e-01 5.606510740033000317e+00 2.103485810591000149e+00 6.222460529505999816e+00 7.658152612950999583e+00 9.064469535146999490e+00 5.949190637338999998e+00 1.992090449772000005e+00 1.870985070849999987e+00 4.000056510071000382e+00 1.663109304275999900e+00 2.017578780652999892e+00 5.794563989032999629e+00 3.872131254710000192e+00 9.056084863417000363e+00 6.125087624698999811e+00 5.813505970927000277e+00 1.834909911502000002e+00 4.027605134222000061e+00 5.961527334531999678e+00 7.189917608148999939e+00 1.515497938114999998e+00 7.619779101127999610e+00 4.554368746637999621e+00 2.377215111447000151e+00 1.568123398000000002e+00 6.564546791054000074e+00 7.597091531949000220e+00 1.999442120137999934e+00 6.769334330013999868e+00 1.670607757303000040e+00 3.915676467033999852e+00 4.218286469424000096e+00 2.378591211380999937e+00 5.948470514357000027e+00 6.226303089910000033e+00 7.483954320839999674e+00 5.541604474582999984e+00 6.814046740238000055e+00 5.873532348972999806e+00 7.566383189140999832e+00 4.122207216834000043e+00 5.701423805567999992e+00 1.949273142056000108e+00 7.035347069014999732e+00 3.716204532005999983e+00 1.777577761229000020e+00 7.046545717014000232e+00 5.541275512869000330e+00 3.800002407620000078e+00 4.092405899513999579e+00 5.480516531264999713e+00 5.795678780771000405e+00 7.203291765993999896e+00 3.765306885063000042e+00 5.766181621340000341e+00