-3.035728608389999863e+04
-3.035551966220000031e+04
-3.035512123069999870e+04
-3.035507054200000130e+04
-3.035529053239999848e+04
-3.035502212969999891e+04
-3.035440363879999859e+04
-3.035446209340000132e+04
-3.035462361439999950e+04
-3.035466290809999919e+04
-3.035417474349999975e+04
-3.035422524110000086e+04
-3.035431988949999868e+04
-3.035335638029999973e+04
-3.035307819240000026e+04
-3.035232855829999971e+04
-3.035289065879999907e+04
-3.035171046170000045e+04
-3.035207274120000147e+04
-3.035165168619999895e+04
-3.035160186629999953e+04
-3.035020797229999880e+04
-3.035050540220000039e+04
-3.034942248180000024e+04
-3.035102330900000015e+04
-3.034921427119999862e+04
-3.034968508339999971e+04
-3.034887115239999912e+04
-3.034906595430000016e+04
-3.034993264039999849e+04
-3.035019426509999903e+04
-3.035001814599999852e+04
-3.035037194639999871e+04
-3.034986759800000073e+04
-3.035052299620000122e+04
-3.035067447819999870e+04
-3.035185052670000005e+04
-3.035150854370000161e+04
-3.035200242029999936e+04
-3.035290271600000051e+04
-3.035392596079999930e+04
-3.035388124880000032e+04
-3.035344887190000009e+04
-3.035354893200000151e+04
-3.035416766049999933e+04
-3.035494962500000111e+04
-3.035487731179999901e+04
-3.035501963099999921e+04
-3.035507572409999921e+04
-3.035517654939999920e+04
-3.035524747579999894e+04
-3.035569032510000034e+04
-3.035535666570000103e+04
-3.035482046890000129e+04
-3.035490026710000166e+04
-3.035510688279999886e+04
-3.035469996679999895e+04
-3.035492616089999865e+04
-3.035476541509999879e+04
-3.035482556240000122e+04
-3.035458179540000128e+04
-3.035452617159999863e+04
-3.035423351080000066e+04
-3.035427536999999938e+04
-3.035419553630000155e+04
-3.035446952329999840e+04
-3.035464057899999898e+04
-3.035377997110000069e+04
-3.035257446210000126e+04
-3.035271479840000029e+04
-3.035301199859999906e+04
-3.035279906530000153e+04
-3.035226424160000170e+04
-3.035150365759999841e+04
-3.035103205900000103e+04
-3.035064521569999852e+04
-3.035092975429999933e+04
-3.035038936040000044e+04
-3.035000726099999883e+04
-3.035036578110000119e+04
-3.035001630260000093e+04
-3.034996928639999896e+04
-3.035093176220000169e+04
-3.035073748870000054e+04
-3.035032732190000024e+04
-3.035096343479999996e+04
-3.035130970399999933e+04
-3.035102019170000131e+04
-3.035185520940000060e+04
-3.035262013600000137e+04
-3.035278936949999843e+04
-3.035279808770000091e+04
-3.035326027149999936e+04
-3.035293243960000109e+04
-3.035359859470000083e+04
-3.035343940279999879e+04
-3.035371726199999830e+04
-3.035405787319999945e+04
-3.035452472940000007e+04
-3.035430255709999983e+04
-3.035429035179999846e+04
-3.035483703840000089e+04
-3.035506055030000061e+04
-3.035464793970000028e+04
-3.035477296349999961e+04
-3.035486690140000064e+04
-3.035509423210000023e+04
-3.035471658609999940e+04
-3.035520891499999925e+04
-3.035543784660000165e+04
-3.035493198409999968e+04
-3.035440065630000026e+04
-3.035452172799999971e+04
-3.035473674960000062e+04
-3.035510210319999896e+04
-3.035448875319999934e+04
-3.035443891499999881e+04
-3.035414138950000051e+04
-3.035416969339999923e+04
-3.035366965020000134e+04
-3.035321056740000131e+04
-3.035287521959999867e+04
-3.035190714569999909e+04
-3.035246798850000050e+04
-3.035187886799999978e+04
-3.035316958460000023e+04
-3.035261930569999822e+04
-3.035194879249999940e+04
-3.035053369620000012e+04
-3.035065970419999940e+04
-3.035066008320000037e+04
-3.035037854460000017e+04
-3.035061184259999936e+04
-3.035082404120000137e+04
-3.035109246899999926e+04
-3.035088445030000003e+04
-3.035028126039999916e+04
-3.035026586419999876e+04
-3.035098315759999969e+04
-3.035138757460000124e+04
-3.035216714979999961e+04
-3.035228274969999984e+04
-3.035221741939999993e+04
-3.035262658920000104e+04
-3.035256391449999865e+04
-3.035303688369999873e+04
-3.035339538779999930e+04
-3.035322281849999854e+04
-3.035312891030000173e+04
-3.035336854569999923e+04
-3.035340605470000082e+04
-3.035446374110000033e+04
-3.035447050239999953e+04
-3.035429081800000131e+04
-3.035424535180000021e+04
-3.035501120810000066e+04
-3.035500038940000013e+04
-3.035456438049999997e+04
-3.035458363589999863e+04
-3.035506127360000028e+04
-3.035501708589999907e+04
-3.035488819629999853e+04
-3.035505855700000029e+04
-3.035501314329999877e+04
-3.035455288809999911e+04
-3.035494166689999838e+04
-3.035438928569999916e+04
-3.035412251620000097e+04
-3.035422739999999976e+04
-3.035428246020000006e+04
-3.035402093790000072e+04
-3.035366553289999865e+04
-3.035353429680000045e+04
-3.035384364999999889e+04
-3.035278105399999913e+04
-3.035250392579999971e+04
-3.035187178549999953e+04
-3.035219078900000022e+04
-3.035201471060000040e+04
-3.035172628099999929e+04
-3.035097849299999871e+04
-3.035151984349999839e+04
-3.035190875650000089e+04
-3.034938249200000064e+04
-3.035025030010000046e+04
-3.035097626740000123e+04
-3.035096049430000130e+04
-3.035169711789999928e+04
-3.035163914199999999e+04
-3.035135929160000160e+04
-3.035164129310000135e+04
-3.035173928810000143e+04
-3.035171668169999975e+04
-3.035161890159999894e+04
-3.035189499069999874e+04
-3.035152004630000010e+04
-3.035268289129999903e+04
-3.035276206810000076e+04
-3.035343696650000129e+04
-3.035292857089999961e+04
-3.035331064419999893e+04
-3.035404627619999883e+04
-3.035444113229999857e+04
-3.035421047349999935e+04
-3.035379578160000165e+04
-3.035423177650000071e+04
-3.035516573290000088e+04
-3.035514095390000148e+04
-3.035503664750000098e+04
-3.035475900539999930e+04
-3.035498337669999819e+04
-3.035527599449999980e+04
-3.035500016659999892e+04
-3.035514719740000146e+04
-3.035453152369999952e+04
-3.035455729540000175e+04
-3.035449844239999948e+04
-3.035464522980000038e+04
-3.035465132470000026e+04
-3.035434197760000097e+04
-3.035441652049999902e+04
-3.035348927019999974e+04
-3.035400124510000023e+04
-3.035401632660000178e+04
-3.035397833560000072e+04
-3.035452510579999944e+04
-3.035304795469999954e+04
-3.035238958320000165e+04
-3.035211726780000026e+04
-3.035230549909999900e+04
-3.035245402290000129e+04
-3.035150179909999861e+04
-3.035189321099999870e+04
-3.035184547559999919e+04
-3.035156846030000088e+04
-3.035122938680000152e+04
-3.035095323869999993e+04
-3.035065990070000043e+04
-3.035130898430000161e+04
-3.035016140710000036e+04
-3.035036241149999842e+04
-3.035058685809999952e+04
-3.035108215330000166e+04
-3.035179801550000047e+04
-3.035125942189999842e+04
-3.035166236669999853e+04
-3.035208882710000034e+04
-3.035188450920000105e+04
-3.035150964910000039e+04
-3.035243742719999864e+04
-3.035322474199999851e+04
-3.035357956539999941e+04
-3.035342860030000156e+04
-3.035375788140000077e+04
-3.035402266149999923e+04
-3.035376526129999911e+04
-3.035391814149999846e+04
-3.035433946350000042e+04
-3.035468997039999886e+04
-3.035414563899999848e+04
-3.035473279289999846e+04
-3.035488325099999929e+04
-3.035442871720000039e+04
-3.035421647179999854e+04
-3.035484760939999978e+04
-3.035517150039999979e+04
-3.035503109580000091e+04
-3.035438210780000009e+04
-3.035451383039999928e+04
-3.035494156849999854e+04
-3.035475352959999873e+04
-3.035486069489999863e+04
-3.035431292329999997e+04
-3.035403450069999963e+04
-3.035370579409999846e+04
-3.035396587509999881e+04
-3.035398933100000067e+04
-3.035350764770000023e+04
-3.035312592329999825e+04
-3.035266198490000170e+04
-3.035273613169999953e+04
-3.035278357809999943e+04
-3.035271334619999834e+04
-3.035296843850000005e+04
-3.035258743719999984e+04
-3.035230072329999894e+04
-3.035138576280000052e+04
-3.035158249499999874e+04
-3.035098223030000008e+04
