1.927541470480000074e-01 1.308611308990000055e-01 -2.021705971649999933e-01 -5.014015592900000068e-02 -1.227468911390000028e-01 -4.937396246999999593e-03 5.574339446200000242e-02 -3.102288181380000176e-01 -1.150630781419999943e-01 -2.164800193599999978e-01 3.914046724329999782e-01 2.397163813700000159e-02 -3.616559002000000085e-03 -4.435764906399999874e-02 -2.339248135099999959e-02 -9.738298048400000073e-02 -2.844600676799999978e-02 -5.007360352399999742e-02 -6.436845969999999660e-03 5.935108322000000325e-02 -2.606607932600000024e-02 -1.051037251790000043e-01 -3.617483644999999921e-03 -5.255990076099999880e-02 -8.800631176930000521e-01 3.406895883919999757e-01 1.107387395870000069e-01 -1.987835139809999985e-01 9.429008716219999808e-01 1.248281987799999965e-01 -4.537006287890000267e-01 -5.337675716509999724e-01 7.797830232300000108e-02 5.295141852360000234e-01 2.420570471669999946e-01 5.385164968100000227e-01 -5.829358044699999714e-02 4.653812113319999999e-01 2.363909428199999913e-02 -2.718569636429999936e-01 8.826681434319999520e-01 -2.866984357400000072e-02 2.827833442430000011e-01 -3.924525374450000270e-01 4.528490780810000005e-01 -1.084162374262999995e+00 1.314357958540000038e-01 -4.627618672070000216e-01 1.689764662229999992e-01 -3.206581271439999936e-01 1.122983854849999991e-01 1.971154708089999930e-01 2.085159282419999927e-01 2.250643418000000152e-03 4.911877343750000180e-01 -5.082430382699999749e-02 -6.207282193299999695e-02 3.624583274739999750e-01 -3.822548269500000012e-02 1.659987593130000105e-01 -4.443815865440000068e-01 2.879230028279999853e-01 2.373718719390000009e-01 5.065974599320000049e-01 -4.358102663130000165e-01 1.755690476999999944e-02 2.566815539150000269e-01 -2.292760019579999919e-01 4.190996319299999939e-02 -7.334563890830000377e-01 -1.543832041490000029e-01 -2.475612980300000154e-02 1.116548499020000029e-01 -6.191039024609999997e-01 -8.037316832200000483e-02 -2.484773332600000162e-02 -2.885957356380000061e-01 -4.571068324840000252e-01 7.493529236549999473e-01 8.426861708100000237e-02 3.595734715699999695e-02 -4.258539595999999774e-03 -8.897458897250000165e-01 7.701418376099999907e-02 8.676133906400000650e-02 1.777616240179999973e-01 2.872164318439999753e-01 3.481303298999999796e-01 -4.102387724599999841e-02 1.752042783290000127e-01 2.313813982550000092e-01 3.457759911489999838e-01 -1.789979164670000011e-01 -1.702814596610000009e-01 1.930298294649999968e-01 -8.671520000129999683e-01 -4.339288182020000217e-01 -5.761203025699999924e-02 -1.607621648850000029e-01 6.950990888199999607e-02 4.146794844900000276e-01 7.579179889400000647e-02 -4.877476062999999695e-02 3.055177726350000178e-01 1.169559017170000020e-01 -8.805686451399999393e-02 5.067631385500000196e-02 2.508186253000000213e-03 1.859767128750000054e-01 -1.750325190729999925e-01 -3.589959754999999791e-03 8.403413121199999891e-02 4.000921101299999977e-02 8.544228545099999406e-02 1.595407409529999987e-01 -4.260545535899999681e-02 1.268236917380000106e-01 3.038521978809999857e-01 -9.163935654329999903e-01 -1.123163403040000063e-01
1.950141965380000064e-01 5.020808917850000386e-01 -3.346303522290000054e-01 -6.382710524999999843e-03 -2.488080075219999965e-01 -1.137785623319999967e-01 2.754998752949999741e-01 -8.204992688040000370e-01 2.790825845000000083e-02 -9.585903760439999921e-01 1.452394071579999890e+00 1.217440164729999968e-01 -7.386633514200000028e-02 -1.866584030919999915e-01 1.708956268160000125e-01 -1.743469358270000047e-01 -8.425292126199999954e-02 -2.689789979860000013e-01 2.706324776069999882e-01 1.708298232480000012e-01 -9.637689239799999974e-02 -4.605033828430000198e-01 -3.020534327619999737e-01 6.063645658899999985e-02 -2.863545755787999969e+00 1.740859221899999920e-01 -6.166373144140000484e-01 1.217619582000000061e-01 1.732515971962999890e+00 -7.440220131670000070e-01 -1.022951015037000033e+00 -1.903024498398999897e+00 5.404232049200000110e-02 2.597420204950000033e-01 1.807271278530999892e+00 1.574981122130999944e+00 1.354612456896999939e+00 2.867095632453999787e+00 1.298753635653000060e+00 6.142355187519999982e-01 -4.188366107570000163e-01 1.090987402801000039e+00 1.718479359899999920e-02 -7.250826848229999788e-01 2.485944173120000045e+00 2.984826539730000006e-01 1.029086659063999987e+00 -2.557995355472999943e+00 1.959125964519999874e-01 -8.297425113809999697e-01 -1.008297764688999898e+00 5.399402315289999477e-01 3.502896308510000112e-01 1.059820125409999952e-01 3.568979994900000063e-01 -1.965299564599999951e-02 2.889136793909999890e-01 3.897026152920000097e-01 -4.687546483700000266e-01 1.644570578354999979e+00 -6.379581783909999970e-01 3.796720707680000251e-01 -1.544040805000000127e-01 -8.095417398099999384e-02 -1.204825640104000062e+00 -2.094608917359999933e-01 3.594827482119999917e-01 -7.634538100099999558e-02 1.349525198427000028e+00 -1.258553962051000008e+00 -5.182547098559999732e-01 -1.274210231429999951e-01 -2.567699036239999844e-01 -1.071643387588999907e+00 -1.179540188449999943e-01 -2.360057691530000057e-01 3.665293033840000270e-01 -2.386253510742000206e+00 -7.413036802029999706e-01 1.186881323400000021e-01 6.442745035199999581e-02 5.914914720589999897e-01 -1.987979139871999923e+00 3.842843798660000032e-01 2.801869373850000011e-01 4.034051626440000038e-01 -1.281546852721000107e+00 2.311696505322000217e+00 4.043158371719999811e-01 3.456785414840000126e-01 8.126578057109999920e-01 1.471771652370000016e-01 -7.257924756900000496e-01 7.460831299689999474e-01 2.248582036289999975e-01 -1.701126047220999915e+00 -2.068983394187000169e+00 2.959459219850000267e-01 -8.021243154449999579e-01 6.208829536890000389e-01 6.490191869989999640e-01 6.110240281109999838e-01 -1.002706575979999959e-01 1.045950395868000093e+00 1.228929222254000031e+00 -5.428694956139999972e-01 -1.244522956299999941e-02 -5.248111692000000106e-02 4.847013059460000273e-01 -5.934942619270000552e-01 1.760117560289999883e-01 5.157442296359999734e-01 -3.058680418479999830e-01 7.614670965990000262e-01 -5.616302019890000441e-01 -3.005762370330000155e-01 7.855583927499999730e-02 4.329394459479999901e-01 -2.042413250081000164e+00 -6.259812095569999846e-01
-1.284292691900000040e-02 4.058564986679999986e-01 -6.956010141270000391e-01 1.179985375330000058e-01 -1.792059370219999948e-01 -1.085794832419999939e-01 5.435680089200000120e-01 -8.388384954080000400e-01 2.358610601400000159e-02 -1.723598491543000044e+00 2.328109850435999828e+00 -1.299280674349999887e-01 -2.332610133209999936e-01 -2.721245795689999913e-01 2.479044420840000040e-01 -2.419242274919999880e-01 -2.006988393200000165e-02 -3.227125068680000153e-01 3.799383720469999837e-01 1.238062503259999975e-01 -9.256731602300000139e-02 -6.996216796609999733e-01 -5.794468331819999651e-01 3.596498289569999840e-01 -3.745580541510000194e-01 6.492515969809999898e-01 -1.066230711093000050e+00 2.429460772799999987e-02 3.763679802809999919e-01 -1.299111195665999974e+00 -3.615734154570000025e-01 -2.303061839294000102e+00 1.946338962749999957e-01 -1.236173778254999966e+00 1.977486454818000006e+00 1.790645645609999947e+00 1.164118010204000075e+00 2.643616021349000089e+00 1.346431281601000007e+00 8.467191901199999648e-02 -1.430733671203999968e+00 8.316167342319999989e-01 -3.136714635439999954e-01 -1.098418238033999961e+00 2.063044263261000211e+00 3.120545285940000135e-01 8.963504601839999975e-01 -2.649457112911000056e+00 3.271671629700000083e-02 -1.337885890808999889e+00 -1.293280015280000028e-01 6.068474346100000139e-02 3.104217705050000276e-01 -1.828416159000000041e-02 3.692168743100000122e-02 4.176879086010000242e-01 3.904565316220000026e-01 2.797610662280000104e-01 -8.687368972610000073e-01 8.866298503809999509e-01 6.841910907199999503e-02 1.644227712249999862e-01 -3.886959709469999802e-01 -5.539328443819999670e-01 -1.029408313920000095e+00 -1.687674098970000092e-01 4.054327633370000128e-01 -2.617261633510000185e-01 2.668931526509999985e-01 -5.770573222699999782e-02 -3.590577353180000042e-01 -8.914043708100000130e-02 -2.285515231670000036e-01 -3.771134251180000008e-01 -1.147133883619999989e-01 -3.461531484979999962e-01 4.706765417850000133e-01 -2.292274200549999918e-01 -1.032254520249999974e+00 -5.950850990300000226e-02 1.104431804449999971e-01 1.521030458418999975e+00 -3.866526130990000087e-01 5.932615281490000170e-01 1.982115417199999952e-01 3.606652243799999824e-01 -1.301742231661999982e+00 -2.650578899129999999e-01 3.598488614509999794e-01 8.400591267610000301e-01 9.431434869250000519e-01 -1.478361932729999884e-01 -8.868550777220000070e-01 1.854579084080999918e+00 -4.917886769079999887e-01 -8.724652064840000554e-01 -1.316990216510999900e+00 6.876508006929999972e-01 -9.002380372139999754e-01 6.920469090219999453e-01 -2.926543889020000178e-01 6.821877916840000111e-01 9.088681619800000056e-02 1.228288028272999988e+00 1.555746448249999969e-01 -3.398626546910000212e-01 1.441247452130000051e-01 -1.455442124009999894e-01 6.097771134249999614e-01 -4.735307932589999935e-01 2.334483903790000037e-01 6.773774608829999933e-01 -2.621114757260000205e-01 1.218215390339999926e+00 -1.050224106748000041e+00 -5.502820233380000259e-01 2.236718768000000093e-02 2.903247461930000273e-01 7.556081266099999583e-02 -6.478600106459999619e-01
-2.383333710320000021e-01 1.351569097879999903e-01 -8.785371637940000422e-01 2.042234911220000004e-01 -9.823234077999999647e-02 -2.510395550050000257e-01 7.074209164370000025e-01 -5.894157836650000259e-01 6.980477722000000274e-02 -1.834216572362999953e+00 2.451744081311999945e+00 -3.604210922700000208e-01 -3.785782117220000131e-01 -4.065391929100000135e-01 2.338017412520000116e-01 -2.210190333029999898e-01 1.023927383519999956e-01 -2.638939946409999959e-01 3.386497444939999824e-01 5.141445354000000190e-02 -3.961627082699999830e-02 -5.488888916680000341e-01 -5.238660470210000364e-01 6.377429456650000050e-01 1.122331817909999918e+00 1.062344437509000095e+00 -7.145799645689999702e-01 -6.739201525179999708e-01 -7.820724558080000000e-01 -1.756731389393999976e+00 7.788552363730000261e-01 -1.588292218130000100e+00 2.381079325790000090e-01 -2.118580779689000160e+00 9.126058990059999765e-01 9.475447135700000301e-01 -1.656457288019000051e+00 6.120788106240000470e-01 1.803880941000000036e-03 -8.810095228209999796e-01 -1.245671327119999949e+00 5.583215702710000450e-01 5.775005785029999616e-01 -1.288484737776999900e+00 7.816206374399999879e-01 -4.603452203269999821e-01 3.596050958370000106e-01 -7.648091948049999811e-01 -3.572558514779999861e-01 -1.409669817734999997e+00 1.632847835071000064e+00 -5.738138057639999845e-01 -6.523190887999999812e-03 -3.515360880949999767e-01 -2.110548202570000087e-01 4.109331056839999885e-01 3.227473691650000198e-01 -3.381044305999999795e-03 -8.225943283819999730e-01 -9.377879742410000219e-01 5.895609159029999713e-01 -7.145369365900000602e-02 -4.168791043839999988e-01 -7.204955987529999550e-01 4.824974380789999739e-01 1.111986008710000029e-01 2.398933476139999965e-01 -2.946678503649999836e-01 -5.989926275460000227e-01 1.135766697325000019e+00 -2.291405577099999910e-02 7.927515699600000409e-02 -6.481304863100000035e-02 2.245755964770000113e-01 -2.808636697000000022e-03 -5.518460409269999589e-01 2.432062601609999986e-01 1.758389263575999895e+00 6.101889017399999560e-01 -1.313971734569999994e-01 6.216892948299999888e-02 1.588397958634000018e+00 6.579860600229999745e-01 4.875031248330000122e-01 -1.786824805049999909e-01 1.994147978230000062e-01 2.219143865740000054e-01 -1.565057685116000075e+00 2.121989025749999869e-01 8.344999363480000154e-01 5.237563222609999958e-01 -1.350574712690000012e-01 -5.612188433600000526e-01 1.790632525126000019e+00 -9.521213995520000362e-01 -8.965053621099999814e-02 2.294070296347999971e+00 7.581091314179999596e-01 -1.443339525419999880e-01 -1.332191768990000080e-01 -7.752709144330000024e-01 2.280821801050000042e-01 -4.520409109999999966e-03 7.255581191209999892e-01 -5.672752684399999801e-01 5.635794314059999754e-01 2.731731297450000207e-01 -1.727333491470000038e-01 4.324255620329999772e-01 -1.423240235769999973e-01 2.381881050980000081e-01 2.264813287490000104e-01 -4.269084732399999749e-02 -7.927127486000000445e-02 -1.278403879299999935e-01 -7.388918623610000180e-01 -7.171768709199999314e-02 -2.204056788410000134e-01 2.193155764911999928e+00 -4.217291191379999860e-01
-4.752971185720000213e-01 5.170342097800000036e-02 -7.870563355199999833e-01 1.065397291909999933e-01 2.361214652699999972e-02 -5.675310050459999589e-01 5.401052363899999653e-01 -2.652578059230000229e-01 1.824065536420000078e-01 -1.091546413122000070e+00 1.646307720345000059e+00 -4.279560712730000049e-01 -5.115994853440000156e-01 -6.714060495089999581e-01 2.833260079079999993e-01 -1.294154733669999890e-01 1.568691750070000113e-01 -2.241354422100000077e-01 1.632679826710000115e-01 6.649108128099999460e-02 6.062385361199999767e-02 -2.419334511909999874e-01 -3.154475448749999855e-01 7.363331023110000206e-01 1.082250775909000096e+00 1.865147957849999927e-01 1.692707717600000147e-02 -9.774737693639999891e-01 -8.228497193239999730e-01 -4.253595393299999805e-01 1.583711202721999944e+00 9.127185429499999614e-02 5.138391056069999685e-01 2.377062033419999887e-01 -1.029523886096000096e+00 -4.575858947059999737e-01 -1.361064236590000087e+00 -6.108297397180000310e-01 -2.308021093500000065e-01 -1.409898158375000099e+00 -5.892097022529999562e-01 -4.494625921240000266e-01 1.620842649130999957e+00 4.118880477790000105e-01 -4.088364212350000249e-01 2.202373232289999982e-01 -5.661838451849999787e-01 1.997409562507000080e+00 -2.735710891620000140e-01 -1.049163029795999957e+00 7.254756340529999736e-01 -3.209628984210000091e-01 -5.299994500019999943e-01 -6.068649220780000242e-01 -3.027457547790000092e-01 -3.708766421920000056e-01 2.522958669609999816e-01 -5.023368213540000404e-01 -5.156396478589999610e-01 -1.026271766952999931e+00 1.884929375319999989e-01 -2.569416404900000048e-02 -1.142211269659999945e-01 -5.059064376330000279e-01 1.744743286692000073e+00 5.586996557910000050e-01 -5.777713299400000224e-02 3.649387867099999905e-02 1.333102686550000082e-01 -1.349847807039999958e-01 4.421326702000000219e-02 2.589368395350000185e-01 3.105142386700000118e-02 1.074762963608999922e+00 1.388393049589999872e-01 -2.917348265479999814e-01 -2.493473506009999952e-01 6.496466202559999514e-01 1.493995080031000011e+00 -1.735847913709999968e-01 2.444368794500000053e-02 7.554921118399999802e-01 2.242023455619999994e-01 2.385929686909999958e-01 -4.836132307739999803e-01 1.225295055300000026e-02 1.173584105683999956e+00 -8.120987786860000002e-01 1.070834121659999943e-01 3.447279188349999801e-01 -4.028231412430000047e-01 6.294634610220000148e-01 -4.788019154000000381e-03 5.992771980969999746e-01 -5.061050568399999561e-01 7.904173145880000195e-01 2.276863943778999921e+00 5.479894192419999532e-01 2.269792381790000091e-01 -1.034560698614999996e+00 4.344951521930000005e-01 -4.034500216340000112e-01 -2.874162415879999988e-01 5.207784773600000056e-02 -9.346833140400000184e-02 4.732442081179999982e-01 3.050508233929999924e-01 -9.153144386200000315e-02 -4.666726782100000248e-02 1.245335120679999935e-01 8.657858000899999740e-02 -4.963385861269999921e-01 1.457033131590000086e-01 -2.640335566729000050e+00 1.206048472635999902e+00 -6.099476183090000170e-01 -1.212689774710000029e-01 -4.273606861090000208e-01 7.833421688160000507e-01 -3.124676798620000251e-01
-7.310969959009999686e-01 1.673557989000000121e-02 -7.326897820050000121e-01 -4.619996135699999673e-02 2.514565413629999968e-01 -8.468413154489999872e-01 3.665469039840000276e-01 -2.373266039000000022e-03 2.487767389480000091e-01 -3.603259307819999813e-01 9.168356129479999783e-01 -3.811826881190000238e-01 -7.279794522810000279e-01 -1.031462987105000062e+00 3.729260294749999760e-01 2.052174781999999836e-03 1.995109852760000024e-01 -2.029158390219999997e-01 -2.629259501900000143e-02 6.351121101300000182e-02 2.109677917499999944e-01 -2.609609991899999870e-02 -1.775408607470000122e-01 6.929986693599999859e-01 -4.104301779139999939e-01 -1.313825299109000033e+00 1.103110307486999897e+00 -1.680772820089999897e-01 -2.290164066200000015e-01 1.051950800601000102e+00 1.207998752381000074e+00 1.392485027703000089e+00 2.316782245890000036e-01 1.869937316566000041e+00 -2.283612941018999809e+00 -1.083873752671999924e+00 2.542805452068999994e+00 -1.918205744677000002e+00 2.022174840859999878e-01 1.798235319940000021e-01 9.021004531230000234e-01 -1.648474964437000034e+00 1.602576689753000050e+00 1.613326561452000041e+00 -7.317679563190000458e-01 1.674231519157000081e+00 -9.933607068109999716e-01 1.668586445954000075e+00 1.581081162050000100e-01 1.155489626389999969e-01 -1.689157260068000044e+00 1.225820726101999991e+00 -7.557355535090000132e-01 -4.538332142170000139e-01 -2.042385137920000038e-01 -7.790440463950000227e-01 2.248641385819999949e-01 -1.103620551241000003e+00 2.351652016499999887e-02 3.828006403379999867e-01 -2.148901569979999870e-01 2.436487334109999903e-01 3.512693084799999865e-01 -1.259099598339999959e-01 1.117823346933999984e+00 1.057103822628000067e+00 -2.922824630429999848e-01 3.323976146400000053e-01 3.444861214809999961e-01 -9.078506545790000493e-01 8.973422683399999433e-02 2.727512701870000167e-01 1.547272529600000023e-02 1.103612681056999945e+00 8.053815098699999842e-02 6.674771101500000248e-02 -5.182079327580000339e-01 -1.807265869470000008e-01 -2.286843541849999939e-01 -6.998522137829999989e-01 4.971139478600000022e-02 -4.909690740770000228e-01 -4.542002750129999766e-01 7.696237660799999658e-02 -4.010952241549999853e-01 5.230830487399999729e-02 3.386790986089999733e-01 1.093825403932999984e+00 1.517886794830000108e-01 -3.046093839380000223e-01 -1.015714477990999898e+00 8.770675494149999807e-01 2.948211947289999801e-01 -5.725295885800000262e-01 1.980471579839999940e-01 1.771217517936999997e+00 -1.300233963651999947e+00 2.813889611559999837e-01 -7.783715912899999423e-02 -8.461648809339999966e-01 7.095995837699999864e-01 -7.192665971880000120e-01 -1.709464466470000110e-01 -5.187951940849999666e-01 -5.633607367049999759e-01 -5.684462905930000032e-01 2.346119264600000087e-01 9.555289656000000645e-03 -4.314045673290000105e-01 3.538774806569999765e-01 -1.806520012539999942e-01 -4.278791087869999732e-01 1.037806007222999982e+00 -1.085802929376999959e+00 1.011030705450000067e-01 3.430620677000000007e-02 -1.442832135250000092e-01 -3.076913221850000046e-01 -6.378124885699999469e-01 -1.069743688799999932e-02
-7.864789419280000526e-01 -2.246421282759999971e-01 -5.040931055649999770e-01 -9.373927827500000420e-02 4.983880834289999839e-01 -1.054853012669999979e+00 5.028970752119999998e-01 1.657319956910000003e-01 3.018102542050000170e-01 -4.655560284400000332e-02 5.836127725359999685e-01 -2.248544835990000101e-01 -8.039070390729999849e-01 -1.092725882642000101e+00 3.805142236490000052e-01 1.176652128250000040e-01 3.071830512170000138e-01 -1.097285883759999969e-01 -7.557736981899999817e-02 -2.492431352399999966e-02 2.329722177290000085e-01 1.057642904879999984e-01 -8.970519598300000230e-02 5.888682100750000092e-01 -1.508273535467999915e+00 -2.183239206051000192e+00 1.106204859431999976e+00 7.064212000599999763e-01 1.123975585469999983e+00 1.462252762000000095e+00 7.120179025439999920e-01 1.523581784434999919e+00 -5.227561933299999797e-02 9.409427979450000201e-01 -1.083242337518000031e+00 -1.654276775834000013e+00 3.826491120696000170e+00 -2.800528605434999818e+00 2.962500032739999734e-01 1.327250251905000011e+00 1.276891355409000006e+00 -1.675454010228000001e+00 9.398592650289999684e-01 1.490714795292999995e+00 -2.972379654639999980e-01 1.072637269486000022e+00 -4.782174232479999842e-01 8.887705464670000444e-01 6.926269721069999719e-01 1.299016935145000051e+00 -8.774252414950000079e-01 1.789009574547000048e+00 -5.378459178379999539e-01 -2.469054146790000126e-01 -9.009695222699999617e-02 -2.118650228479999897e-01 7.518411412200000365e-02 -1.166047460154999937e+00 7.565855102659999609e-01 1.643866445680000066e-01 -7.632294982699999730e-02 3.387920126739999982e-01 6.063656212400000411e-01 1.806023705789999989e-01 -1.012266427666999924e+00 7.697188134819999972e-01 -4.118267553550000182e-01 4.041515528669999968e-01 -5.167238918609999843e-01 -2.406984343169999985e-01 1.188157881879999961e-01 3.771197703399999795e-02 -3.499140330799999782e-02 -9.129644020939999827e-01 -1.039959097979999969e-01 2.004857091629999866e-01 -2.628556218520000098e-01 1.139247825810000003e-01 -1.036588428803000062e+00 -8.863693087559999517e-01 4.788428536299999677e-02 -1.461805182189999996e+00 6.322443943100000130e-01 3.427436598699999670e-02 -2.359994263649999868e-01 2.331656806200000098e-01 -2.757615554949999770e-01 1.204053499622999901e+00 2.984263400799999980e-02 -5.618738409579999704e-01 -7.617418282250000283e-01 -5.980138841840000330e-01 3.609325371759999901e-01 -1.077455388396000080e+00 9.881725409839999807e-01 7.908286531329999924e-01 -2.067204510793999805e+00 -3.096059461200000029e-02 -1.214649571590000060e-01 3.127425711829999733e-01 -5.007257074530000462e-01 -4.537299775809999769e-01 1.909036618720000023e-01 -9.008288708830000102e-01 -9.389890343410000062e-01 -8.507249677160000356e-01 -5.282677378899999776e-02 1.615172497029999932e-01 -3.539732606100000067e-01 3.556860027900000110e-01 -2.858465692270000247e-01 -3.521366987249999747e-01 1.261662252418999985e+00 1.572088653143999926e+00 -1.176591188633999918e+00 7.741268538550000189e-01 -1.653880473179999977e-01 -1.136341422130000001e-01 -2.775939569509999760e-01 1.284172266159999964e-01
-4.785682874369999729e-01 -4.866188721959999741e-01 -5.455085578300000043e-02 -1.296950022689999926e-01 6.528530521350000004e-01 -1.255768959996000023e+00 8.349240670649999974e-01 2.375060854509999930e-01 3.924071256080000070e-01 -9.916159951000000014e-03 5.240102278699999561e-01 -1.362921890500000122e-01 -2.814456542559999885e-01 -5.477394281959999667e-01 2.831346914010000049e-01 2.120777561649999921e-01 3.515998424730000238e-01 6.966668354999999702e-02 8.921804796599999698e-02 -1.068276926789999970e-01 8.655296669999999748e-02 1.497873858419999926e-01 -2.495502846399999877e-02 4.160208424110000136e-01 -5.393309497760000459e-01 -2.096046475096999817e+00 6.321813970330000254e-01 3.140366072510000217e-01 1.528410086100999932e+00 6.950324421039999478e-01 1.362847964221000074e+00 5.962682985560000537e-01 -2.158974371830000016e-01 -1.009936649509000084e+00 -2.807525116300000137e-02 -1.711766471160999892e+00 2.038984524805000031e+00 -1.192097936202999975e+00 9.822872529899999428e-02 7.725588831680000323e-01 5.130228212740000071e-01 -5.672699655439999988e-01 3.291448343100000229e-01 1.156314228549000012e+00 9.718081959809999892e-01 -4.992522699759999738e-01 -3.216071101069999938e-01 -5.474767034880000383e-01 4.742899828950000174e-01 1.325824572254999945e+00 1.327400596733000038e+00 -1.901769584859999973e-01 -8.852632159699999614e-02 -2.798808349299999887e-01 -1.181663746550000033e-01 2.938092812920000130e-01 -1.830194392979999918e-01 -7.376208847349999820e-01 9.514424167749999661e-01 -5.339175285720000330e-01 4.100159795130000062e-01 1.344962307030000137e-01 5.725285726859999924e-01 4.522733373519999822e-01 -2.427288306983999888e+00 -2.155487607159999874e-01 -4.183309464409999956e-01 3.197518303940000139e-01 -1.606440045610000034e-01 1.108658926611999940e+00 2.068302730809999934e-01 -3.147390635389999969e-01 1.191334341999999991e-02 -1.880645266351999911e+00 -1.106639266570000057e-01 1.352038866570000053e-01 2.064130998129999894e-01 -4.685407437019999954e-01 4.100809933400000051e-02 -3.472181269560000172e-01 3.767866168299999902e-02 -1.683305637999999993e+00 5.222140603110000390e-01 -1.588387820130000017e-01 -1.769112488650000092e-01 3.688253152009999813e-01 1.411767246990000002e-01 -8.732904511489999466e-01 -3.859251185659999805e-01 -3.624009906030000172e-01 -1.389696583900000004e-01 -8.275191814210000052e-01 3.427540202950000170e-01 -1.294070442888000105e+00 1.451008471416999956e+00 -2.008482210383999877e+00 -4.898815050259999748e-01 -2.641982686289999771e-01 2.016154121999999896e-02 1.187711889533000109e+00 -6.418828304560000308e-01 2.339944199660000113e-01 1.006792082780000042e-01 -9.081951329990000099e-01 7.810665506170000327e-01 -1.046056416540000061e-01 -3.498480323650000057e-01 3.171318768510000274e-01 1.468035729150000135e-01 9.845920594300000550e-02 -6.645750065399999573e-02 -4.314437418379999944e-01 6.934759292829999477e-01 1.949562116785999999e+00 -5.225835069619999551e-01 1.008122528312000110e+00 -1.971861847910000021e-01 -4.463632503800000345e-02 -2.154434767589999966e-01 1.808544010020000092e-01
8.248971496599999398e-02 -4.823159260500000101e-01 2.677305750660000094e-01 -2.017413485220000136e-01 5.980888873490000091e-01 -1.226064893343999929e+00 1.278319535272999907e+00 1.869747140499999905e-01 3.914093647849999913e-01 -1.563219052699999986e-02 5.669728255220000124e-01 -3.556233410469999967e-01 3.299709489700000109e-01 -1.164325399819999968e-01 1.741432550819999869e-01 3.069640673990000068e-01 1.946619400650000109e-01 2.576911448520000092e-01 4.090746791450000086e-01 -8.732091906699999961e-02 -7.855144595799999629e-02 1.676230132310000120e-01 7.486718439599999997e-02 2.662420470960000229e-01 -2.627892959609999801e-01 -6.569936162620000353e-01 1.518826829340000073e-01 -1.192894307381000107e+00 -2.051603478909999889e-01 -5.304534362780000123e-01 7.987441621309999684e-01 -4.259275146400000045e-01 -3.016664665770000253e-01 -9.801559166000000101e-01 5.544139557710000554e-01 -1.811760157260000059e-01 -3.410488201380000195e+00 -1.474930643729999991e-01 -9.855411785100000321e-02 -1.371400085060999974e+00 -2.345659498609999893e-01 8.174288401470000132e-01 -6.128255843819999660e-01 1.049331299347999957e+00 4.751386868090000104e-01 -1.299354039605000066e+00 -6.552308066930000452e-01 -2.128902059934000057e+00 2.085104819830000122e-01 6.694054085280000121e-01 1.132454934239000011e+00 -1.523904670659000038e+00 3.339593441550000041e-01 -2.038049578109999982e-01 -1.467701130240000040e-01 -1.108868548449999936e-01 -1.761821095649999946e-01 -1.592918621299999893e-01 4.238222493500000132e-01 5.482223890920000509e-01 2.828003787130000113e-01 -1.755333077500000061e-01 4.150506832490000186e-01 8.726935085920000112e-01 -4.527188095610000240e-01 -9.072837289259999549e-01 -1.992264581919999944e-01 4.244725366399999811e-02 7.160331508709999460e-01 3.072163087600000009e-01 1.517615119079999964e-01 -5.036412606190000529e-01 3.887835692009999899e-01 -2.713340842620000082e-01 1.438090144570000062e-01 5.980846596400000298e-02 4.420736801269999905e-01 -1.299291627749999956e+00 1.132684812773000038e+00 2.851244012260000238e-01 5.774578716699999698e-02 -9.854629856540000343e-01 -1.105521629982999965e+00 -5.358212155399999510e-01 -2.175354390199999918e-02 3.244210475459999854e-01 -1.776765518560000090e-01 -1.546162725552999939e+00 -7.688457489619999752e-01 4.610323236999999859e-03 6.189908321570000149e-01 -4.175366082179999827e-01 9.515767098499999799e-02 -5.879577088180000244e-01 1.204208794646000058e+00 -1.557439802965000064e+00 3.160695276489999817e+00 -1.203767654289999989e-01 3.522652258189999941e-01 1.493262130343999905e+00 4.821741533989999939e-01 8.039558298590000485e-01 -3.250372682239999755e-01 -6.286012187989999944e-01 2.546634812055999841e+00 9.578549187589999736e-01 -3.482396935129999926e-01 3.239233438229999762e-01 6.401137002350000271e-01 4.118868170300000325e-02 2.986638379600000115e-01 -2.262373222000000073e-01 -4.416617268000000082e-03 -7.286691599500000338e-02 1.626556889183000010e+00 5.475740066630000458e-01 -1.742878521579999951e-01 -5.407176649499999960e-02 -7.580193160060000324e-01 2.690942003110000091e-01