-3.086204236829025227e+00 1.285550167068129968e+00 2.702268323398079541e+00 1.285550167068129968e+00 1.128759144873658293e+01 -1.214615222190645660e+00 2.702268323398079541e+00 -1.214615222190645660e+00 1.364281369836223057e+01
-6.519838462395498802e+00 1.715347761694080875e+00 2.472582961083104269e+00 1.715347761694080875e+00 1.415881607968700173e+01 -7.979929095802874572e-01 2.472582961083104269e+00 -7.979929095802874572e-01 1.459562906203603738e+01
-8.062429114192138258e+00 9.301388147437955611e-01 2.568829310430781554e+00 9.301388147437955611e-01 1.132544149172330350e+01 -4.786440081442730476e-01 2.568829310430781554e+00 -4.786440081442730476e-01 1.106827803580286407e+01
2.683998574864451925e+00 1.187709875091415457e+00 2.706022436684929033e+00 1.187709875091415457e+00 1.047613630402903340e+01 -2.369169631403178489e-01 2.706022436684929033e+00 -2.369169631403178489e-01 1.407994366204973602e+01
2.780166478153083709e+00 1.137242664738708164e+00 2.568270256074931090e+00 1.137242664738708164e+00 1.022750892007021228e+01 -2.257646947805666271e-01 2.568270256074931090e+00 -2.257646947805666271e-01 1.689684104016604849e+01
-9.804451439490586395e+00 1.926620726326104149e+00 2.559664177966794352e+00 1.926620726326104149e+00 7.179947402439678328e+00 -6.631348303822777179e-01 2.559664177966794352e+00 -6.631348303822777179e-01 9.488587428146527003e+00
-1.478983586342437206e+01 4.279852862041790829e+00 2.224177061142015521e+00 4.279852862041790829e+00 1.966102737367978692e+00 -1.131328938332386569e+00 2.224177061142015521e+00 -1.131328938332386569e+00 5.525321499888384835e+00
-1.044182143665364393e+01 4.792257840649400080e+00 1.794312812050412598e+00 4.792257840649400080e+00 -5.009417535354269368e+00 -1.185668657281247595e+00 1.794312812050412598e+00 -1.185668657281247595e+00 1.010729213899389656e+01
-2.229196367282685554e+00 2.868090510909673707e+00 2.783817910440636201e+00 2.868090510909673707e+00 -1.486228758748106848e+01 -1.485770152274617395e+00 2.783817910440636201e+00 -1.485770152274617395e+00 6.093591418383228486e+00
-1.272352428893656828e+01 3.186071302367922409e-02 3.519679558352004634e+00 3.186071302367922409e-02 -1.988368318774897148e+01 -1.933749891247225294e+00 3.519679558352004634e+00 -1.933749891247225294e+00 -6.825729736590979257e+00
-2.062209403087258863e+01 -1.185062204209226033e+00 2.755325971496649817e+00 -1.185062204209226033e+00 -2.044481342056650419e+01 -1.588921865487022522e+00 2.755325971496649817e+00 -1.588921865487022522e+00 -8.113761093816524550e+00
-1.860048889695999463e+01 -9.022432407749403360e-01 1.879728735902856718e+00 -9.022432407749403360e-01 -1.589742580827311969e+01 -1.555214268165300728e+00 1.879728735902856718e+00 -1.555214268165300728e+00 7.007118360743194163e-01
-1.016971213656226070e+01 3.958514321934055724e-01 1.159917520403778823e+00 3.958514321934055724e-01 -8.380923878830902396e+00 -1.666170469443564839e+00 1.159917520403778823e+00 -1.666170469443564839e+00 3.354042746229774608e+00
-6.008540428404016254e+00 2.539951530577901906e+00 -3.182950918008872199e-01 2.539951530577901906e+00 3.571242236779263557e+00 -1.982008449120629345e+00 -3.182950918008872199e-01 -1.982008449120629345e+00 -4.043896662176017509e-01
-1.214485284542823962e+01 6.201564860917321287e-01 -9.912117603746287142e-02 6.201564860917321287e-01 8.713125304862828102e+00 -2.484727567773918899e+00 -9.912117603746287142e-02 -2.484727567773918899e+00 -3.228115435305568770e+00
-1.936880438677149741e+01 -1.697026509313295684e+00 -1.905730839132264487e+00 -1.697026509313295684e+00 8.735545371650454527e+00 -1.962927550053920056e+00 -1.905730839132264487e+00 -1.962927550053920056e+00 -4.293340963346651051e+00
-1.977318398448350933e+01 -1.762565480678555119e+00 -1.575352354231181140e+00 -1.762565480678555119e+00 3.506292617103062836e-01 -2.747400691729959821e+00 -1.575352354231181140e+00 -2.747400691729959821e+00 -1.320620595768762939e+01
-6.420977401612029567e+00 -1.560979581827254270e+00 1.079228736937139166e+00 -1.560979581827254270e+00 1.464878492106931551e+00 -2.261925450627133571e+00 1.079228736937139166e+00 -2.261925450627133571e+00 -9.221870394541367588e+00
-2.201920156294309427e-01 7.938401803154111758e-02 1.908336145795716199e+00 7.938401803154111758e-02 -6.470680270589529215e+00 -5.839433171598256145e-01 1.908336145795716199e+00 -5.839433171598256145e-01 -5.389916052286308101e+00
-1.716411765286165547e+01 1.222057171767620271e-01 1.118878363106793783e+00 1.222057171767620271e-01 -4.692756176961466963e+00 6.894901289458879035e-01 1.118878363106793783e+00 6.894901289458879035e-01 -5.518260221469117432e+00
-2.848686239492996819e+01 -1.638131658072666363e+00 -1.640885401974865321e+00 -1.638131658072666363e+00 -1.090737387617018683e+01 7.176186181078162418e-01 -1.640885401974865321e+00 7.176186181078162418e-01 3.617808422946105829e+00
-1.889873538931230001e+01 -1.403067083936545334e+00 -5.860319257530137715e-01 -1.403067083936545334e+00 -5.341493041731538938e+00 -9.010972014243833206e-01 -5.860319257530137715e-01 -9.010972014243833206e-01 1.238091391121441909e+01
-1.144431454762475298e+01 -1.994125309692271086e+00 -2.288751648077330891e+00 -1.994125309692271086e+00 -2.933610788861705121e+00 5.275518188340895254e-01 -2.288751648077330891e+00 5.275518188340895254e-01 7.164495835414825819e+00
-4.305697655197244345e+00 5.370965973583553543e-01 -1.812618507177732763e+00 5.370965973583553543e-01 7.134612536468994293e+00 9.670093913813075925e-01 -1.812618507177732763e+00 9.670093913813075925e-01 6.191043122614060756e+00
-1.193069964541149197e+01 3.377132552248747643e+00 7.562057199620469738e+00 3.377132552248747643e+00 -3.022648957991165730e+00 -4.494107225471013933e+00 7.562057199620469738e+00 -4.494107225471013933e+00 1.271975727212706708e+01
-1.078208167167146847e+01 4.990107159842476214e+00 1.128133262869761211e+01 4.990107159842476214e+00 8.456301749221917241e-01 -6.818135168127680501e+00 1.128133262869761211e+01 -6.818135168127680501e+00 2.072929568473915296e+01
-1.330372843660971327e+01 4.324152528574584764e+00 1.113930296705225942e+01 4.324152528574584764e+00 9.939167593840720016e+00 -7.370595011213514347e+00 1.113930296705225942e+01 -7.370595011213514347e+00 -2.240317003471787416e+00
-4.050278895315193139e+00 3.204689626294135785e+00 8.383200948726594603e+00 3.204689626294135785e+00 1.510357842813063023e+01 -5.141595285103441881e+00 8.383200948726594603e+00 -5.141595285103441881e+00 -4.934062165352752771e+00
8.202051794067576340e-01 1.356281605018239356e+00 6.257817047548306810e+00 1.356281605018239356e+00 1.574188153747863872e+01 -2.929946723246588114e+00 6.257817047548306810e+00 -2.929946723246588114e+00 -5.883550894685229959e-01
-1.035226262436132494e+01 5.498258517069716245e-01 7.574459694409084953e+00 5.498258517069716245e-01 1.071572674263352454e+01 -4.910340965436053473e+00 7.574459694409084953e+00 -4.910340965436053473e+00 4.057108361420514342e+00
-1.431737395171616356e+01 -1.329857020138047297e+00 8.308995282686167272e+00 -1.329857020138047297e+00 1.377430656097602180e+00 -7.273311372064457991e+00 8.308995282686167272e+00 -7.273311372064457991e+00 2.510469661886853388e+00
-1.847940638291274240e+01 -1.803757959605286398e+00 5.297183066851685496e+00 -1.803757959605286398e+00 -1.223378503103020520e+01 -5.084691786970771510e+00 5.297183066851685496e+00 -5.084691786970771510e+00 -1.263037805826980442e+00
-1.056694394956593008e+01 -4.992675500258753618e-01 -2.929243274826752952e+00 -4.992675500258753618e-01 -1.794131338646845109e+01 -3.470159093204993273e+00 -2.929243274826752952e+00 -3.470159093204993273e+00 -4.140777387842650148e-01
-7.892916073462684423e+00 1.173803914385924241e+00 -6.919942293600952254e+00 1.173803914385924241e+00 -1.193658605552673357e+01 -2.094176413796057457e+00 -6.919942293600952254e+00 -2.094176413796057457e+00 2.152206310280164292e+00
-1.897089309336102048e+01 7.246289580419379428e-01 -1.997260603034747728e+00 7.246289580419379428e-01 -9.473337148397265040e+00 -9.337863160373517379e-01 -1.997260603034747728e+00 -9.337863160373517379e-01 -1.523548623363589805e+01
-2.168089384361140048e+01 -1.209064095406814088e-01 -5.375708147252248326e-01 -1.209064095406814088e-01 -1.356661246353236905e+01 -1.837466181133244003e+00 -5.375708147252248326e-01 -1.837466181133244003e+00 -1.851258154440516890e+01
-1.604310001192711255e+01 -8.874409408799522891e-01 4.540997821769420656e-02 -8.874409408799522891e-01 -1.949188209771572033e+01 -3.184219254829047774e+00 4.540997821769420656e-02 -3.184219254829047774e+00 -1.278686029927237300e+01
-8.847126649352905048e+00 -1.856673211210010610e+00 1.743244286208923688e+00 -1.856673211210010610e+00 -1.509511054230426375e+01 -2.486101100888618465e+00 1.743244286208923688e+00 -2.486101100888618465e+00 -4.872431601315102334e+00
-1.980100109680611453e+01 5.178507903706862370e-02 2.445497824645570084e+00 5.178507903706862370e-02 -1.315306744244254666e+01 -1.046024511567451576e+00 2.445497824645570084e+00 -1.046024511567451576e+00 -1.458117043644040756e+01
-2.697809018647265589e+01 3.366282975399814248e+00 1.422068313617647073e+00 3.366282975399814248e+00 -1.535591689206412447e+01 2.517019133063515962e-02 1.422068313617647073e+00 2.517019133063515962e-02 -2.004025577817970571e+01
-2.179992783459250916e+01 4.728799302804359783e+00 1.852648665772801184e+00 4.728799302804359783e+00 -1.233496351915617417e+01 2.025938261482513603e-01 1.852648665772801184e+00 2.025938261482513603e-01 -1.339312024672091184e+01
-1.301514965766528142e+01 4.196451499190966494e+00 2.743378965429578820e+00 4.196451499190966494e+00 -4.791241666869142435e+00 -1.131447257116904748e+00 2.743378965429578820e+00 -1.131447257116904748e+00 -8.951285439074567307e+00
-9.161785548621965702e+00 3.300925592484177606e+00 2.195306248144782924e+00 3.300925592484177606e+00 -3.397912609667609107e+00 -1.308805027530083098e+00 2.195306248144782924e+00 -1.308805027530083098e+00 -1.602607434993813129e+01
-1.108504572132882693e+01 2.919405481919024048e+00 1.804968728560738533e+00 2.919405481919024048e+00 -1.471102017241620041e+00 -7.567680564081737948e-01 1.804968728560738533e+00 -7.567680564081737948e-01 -1.495331320013543852e+01
-3.027445307803438901e+00 2.771072009287999460e+00 2.400574047269266875e-01 2.771072009287999460e+00 3.443032365107318249e+00 -6.459001541297704208e-01 2.400574047269266875e-01 -6.459001541297704208e-01 -1.621388997548510069e+00
-4.360625190411433039e+00 2.046706750761443594e+00 -1.071486686878282413e+00 2.046706750761443594e+00 9.130873825566791169e+00 -1.055744408313481708e+00 -1.071486686878282413e+00 -1.055744408313481708e+00 1.134612004381656192e+01
-4.803887088918913584e+00 7.470499488189392689e-01 7.810416508212747466e-01 7.470499488189392689e-01 1.211538187365798258e+01 -1.939384427182319959e+00 7.810416508212747466e-01 -1.939384427182319959e+00 1.600262193073471195e+01
-8.602209473410738383e+00 1.519693854204128003e-01 2.218758825232451937e+00 1.519693854204128003e-01 1.550400324643445238e+01 -2.728450231114556424e+00 2.218758825232451937e+00 -2.728450231114556424e+00 1.767853583859931277e+01
-7.054724685557672181e+00 9.459666555227663753e-01 2.147239476469178232e+00 9.459666555227663753e-01 1.616257317413850103e+01 -2.550635725803872322e+00 2.147239476469178232e+00 -2.550635725803872322e+00 2.116900983542018722e+01
-3.138062709021504748e+00 2.324521876024435940e+00 1.254649441975987934e+00 2.324521876024435940e+00 1.488447760492953087e+01 -2.903963147710241444e+00 1.254649441975987934e+00 -2.903963147710241444e+00 2.122813795593664921e+01
7.058926722876623927e-01 2.778841048347318043e+00 -3.486169102622403981e-01 2.778841048347318043e+00 1.627164315592748878e+01 -2.426411657783939635e+00 -3.486169102622403981e-01 -2.426411657783939635e+00 1.595930206530053930e+01
2.249694504218920255e+00 3.552974467067820719e+00 -3.975733186993576224e-02 3.552974467067820719e+00 1.271213613939718989e+01 -8.057746042204053660e-01 -3.975733186993576224e-02 -8.057746042204053660e-01 1.216790340799117409e+01
-6.231655324772635840e-01 2.969666565106549694e+00 2.025380449386140924e+00 2.969666565106549694e+00 1.406893336609693179e+01 -8.391378202429065070e-01 2.025380449386140924e+00 -8.391378202429065070e-01 1.268248637354390063e+01
-1.740653827980375157e+00 2.461218613533334931e+00 3.009049989794953195e+00 2.461218613533334931e+00 1.465004605252396352e+01 -1.354945138834834584e+00 3.009049989794953195e+00 -1.354945138834834584e+00 1.698140943776277112e+01
-4.429189066750433668e+00 2.404549370152194054e+00 3.541170917341449176e+00 2.404549370152194054e+00 1.442702846803208949e+01 -1.485622108205954195e+00 3.541170917341449176e+00 -1.485622108205954195e+00 1.472002166935975254e+01
-3.937502095938366420e+00 3.365286835799684795e+00 3.303256702030967773e+00 3.365286835799684795e+00 1.118069151572257880e+01 -1.147081491689436739e+00 3.303256702030967773e+00 -1.147081491689436739e+00 1.251612687153746606e+01
-4.413087383960253796e+00 3.899014298423427505e+00 2.761771149476103471e+00 3.899014298423427505e+00 6.582294348304758458e+00 -5.562580630568225715e-01 2.761771149476103471e+00 -5.562580630568225715e-01 1.343941666513430278e+01
-8.465642884914608146e+00 2.335952283071826674e+00 4.193399192166447520e+00 2.335952283071826674e+00 1.651898424455036096e+00 -3.945497626737108354e-01 4.193399192166447520e+00 -3.945497626737108354e-01 6.547203089926824759e+00
-9.921144529349190222e+00 2.349851050148480169e+00 5.305004018011897138e+00 2.349851050148480169e+00 -3.654851444501983959e+00 2.287343854833399082e-01 5.305004018011897138e+00 2.287343854833399082e-01 3.561335197285622201e+00
-1.122287728143985142e+01 4.165732915719499552e+00 3.923744626645877531e+00 4.165732915719499552e+00 -5.632092835806130182e+00 7.147861279605426388e-01 3.923744626645877531e+00 7.147861279605426388e-01 -3.683213077451881201e+00
-1.061725312114823616e+01 4.202650668178064208e+00 -3.895877796400636041e-04 4.202650668178064208e+00 -1.048957988714581901e+01 4.838843139184104136e-01 -3.895877796400636041e-04 4.838843139184104136e-01 -5.589037672373451393e+00
-1.039988748068282121e+01 2.508507372465037299e+00 -2.824652630634017392e+00 2.508507372465037299e+00 -1.461022900726479889e+01 3.551347607956131802e-01 -2.824652630634017392e+00 3.551347607956131802e-01 -4.034117759586408170e+00
-1.119432099957285054e+01 3.682875654331471127e-01 -3.007396072491267169e+00 3.682875654331471127e-01 -1.262203573249339250e+01 -4.020275677916128054e-01 -3.007396072491267169e+00 -4.020275677916128054e-01 -1.522138556265278053e+00
-1.498562205619648324e+01 -2.380220474191923341e-01 -1.355037235839032572e+00 -2.380220474191923341e-01 -1.032931033889317263e+01 -1.210424610718932037e+00 -1.355037235839032572e+00 -1.210424610718932037e+00 -1.192622786494848430e+00
-1.763571012544744221e+01 1.542670644253113066e+00 -2.162468792021069175e-01 1.542670644253113066e+00 -6.053498020857872142e+00 -1.299155166677950834e+00 -2.162468792021069175e-01 -1.299155166677950834e+00 -3.356777800753175889e+00
-1.676694061968783345e+01 2.391771045810693774e+00 -5.180188371984782991e-01 2.391771045810693774e+00 -5.140586055633105111e+00 -8.650044296399852506e-01 -5.180188371984782991e-01 -8.650044296399852506e-01 -4.388883772914865311e+00
-1.503668713984425942e+01 9.743516344427090026e-01 -5.690791528096678792e-02 9.743516344427090026e-01 -3.864390856086191040e+00 -9.249456815243478625e-02 -5.690791528096678792e-02 -9.249456815243478625e-02 -7.947223384631078247e+00
-1.149688679897051635e+01 1.823656567650275395e+00 1.756536611982522089e-01 1.823656567650275395e+00 1.108147020439539165e+00 1.591516204040599014e+00 1.756536611982522089e-01 1.591516204040599014e+00 -8.495904317928692606e+00
-1.144205892776916222e+01 2.808837651989496198e+00 -3.857570924054004591e-01 2.808837651989496198e+00 7.895002581371946881e+00 3.517513163664146347e+00 -3.857570924054004591e-01 3.517513163664146347e+00 -1.048367563990284523e+01
-1.329947686807099316e+01 2.267407386832421157e+00 9.405957254006015456e-01 2.267407386832421157e+00 6.904166363501144765e+00 3.653548613094305342e+00 9.405957254006015456e-01 3.653548613094305342e+00 -1.365112477775289435e+01
-9.007928967785463925e+00 1.890234809658831505e+00 4.482421811445073345e+00 1.890234809658831505e+00 2.672014993363059698e+00 3.096150878106823878e+00 4.482421811445073345e+00 3.096150878106823878e+00 -8.865156780114240576e+00
-1.153832457192834227e+01 1.450139970940706347e+00 6.997112153238411736e+00 1.450139970940706347e+00 4.194459635114034413e+00 1.547330317514229447e+00 6.997112153238411736e+00 1.547330317514229447e+00 3.988817804826340296e+00
-9.970087994776319462e+00 -2.750207192314195748e-01 6.156348927503645818e+00 -2.750207192314195748e-01 3.610366464005357656e+00 1.991106427461460937e-01 6.156348927503645818e+00 1.991106427461460937e-01 9.161707700254126507e+00
-1.200336173490300418e+01 -3.033746165873934419e+00 1.547134198884411171e+00 -3.033746165873934419e+00 4.924551558376252025e+00 -3.573621806151551783e-01 1.547134198884411171e+00 -3.573621806151551783e-01 1.236243251099144480e+01
-7.701014505445612279e+00 -3.004944004687733816e+00 -1.455007705892053638e+00 -3.004944004687733816e+00 4.522406069772252124e+00 1.166567553539514801e+00 -1.455007705892053638e+00 1.166567553539514801e+00 1.506366636071331122e+01
6.423799773008396663e+00 -3.280114237197636617e-01 -2.043304436578337047e+00 -3.280114237197636617e-01 -1.495952157064041499e+00 2.797667397734676431e+00 -2.043304436578337047e+00 2.797667397734676431e+00 8.157188772092682782e+00
-3.678630005743070419e-01 1.346410257966714985e+00 1.100458734893725365e+00 1.346410257966714985e+00 -2.927544465912649496e+00 1.698359182596280270e+00 1.100458734893725365e+00 1.698359182596280270e+00 -6.016717426715452177e-01
-1.015523968583316261e+01 2.061768845019228635e+00 2.376668171435222021e+00 2.061768845019228635e+00 -3.952249699893068069e+00 -1.189717764083366491e+00 2.376668171435222021e+00 -1.189717764083366491e+00 -4.948622519918324247e-01
-1.390634113487125312e+01 4.331300737635684683e+00 3.039020270415152769e+00 4.331300737635684683e+00 -3.468596589560207999e+00 -2.981380551809027502e+00 3.039020270415152769e+00 -2.981380551809027502e+00 6.781153220141960425e+00
-2.484196995850370904e+00 3.422588740888026670e+00 1.351476107389396608e+00 3.422588740888026670e+00 1.161080948796107792e+00 -3.344123855959520775e+00 1.351476107389396608e+00 -3.344123855959520775e+00 7.152475173862097080e+00
7.022720245043164056e+00 2.330202326523602263e+00 -8.828994906223784911e-01 2.330202326523602263e+00 -1.165491472325205446e+00 -3.310446171446708163e+00 -8.828994906223784911e-01 -3.310446171446708163e+00 5.864891886344041794e+00
-6.262555819286458991e+00 4.930745047417853577e+00 -3.014281066366132578e+00 4.930745047417853577e+00 -8.877663344842002147e+00 -1.851558316216876499e+00 -3.014281066366132578e+00 -1.851558316216876499e+00 -1.090094339298417481e-01
-1.868746114366907918e+01 4.863069707459338531e+00 -1.500576167153856000e+00 4.863069707459338531e+00 -1.529123927269235494e+01 -2.163682983845733876e+00 -1.500576167153856000e+00 -2.163682983845733876e+00 -1.369940385123279825e+01
-1.487307348017154851e+01 3.102163376016045415e+00 1.731591554360142782e+00 3.102163376016045415e+00 -1.763692674997023246e+01 -2.010191413089855494e+00 1.731591554360142782e+00 -2.010191413089855494e+00 -1.374244565553578745e+01
-8.609015563068332710e+00 2.849954242161777618e+00 2.484149231135220237e+00 2.849954242161777618e+00 -1.738427064690350932e+01 -1.959778270823939739e+00 2.484149231135220237e+00 -1.959778270823939739e+00 -9.717195020970471830e+00
-1.008323995773850790e+01 1.550482208575633569e+00 9.565885797094472176e-01 1.550482208575633569e+00 -1.236032080340028827e+01 -2.226277323857503099e+00 9.565885797094472176e-01 -2.226277323857503099e+00 -1.130910944922963068e+01
-1.353823524941994805e+01 1.905258022882345470e+00 1.006583683973962140e+00 1.905258022882345470e+00 -4.461596755588215224e+00 -1.641094477878757285e+00 1.006583683973962140e+00 -1.641094477878757285e+00 9.646029742409497620e-01
-8.487181351781483585e+00 2.228011894021950212e+00 1.206758863466506737e+00 2.228011894021950212e+00 1.664894681730787251e+00 -3.562679663472936298e+00 1.206758863466506737e+00 -3.562679663472936298e+00 5.665854974314875392e+00
-1.341750661616099549e+01 8.236649429817387569e-01 8.403931344219266464e-01 8.236649429817387569e-01 -2.694580480618088636e+00 -2.836391708005630452e+00 8.403931344219266464e-01 -2.836391708005630452e+00 -2.925672708134065658e+00
-1.640372032681075964e+01 2.098476640212957045e-01 3.095337019151731983e+00 2.098476640212957045e-01 -1.135888595433825898e+01 -2.642401479081484261e+00 3.095337019151731983e+00 -2.642401479081484261e+00 -7.536978547175332110e+00
-1.162692252785973324e+01 8.751528133444241853e-01 6.425754549420160444e+00 8.751528133444241853e-01 -1.135877941090189402e+01 -3.014889601867781987e+00 6.425754549420160444e+00 -3.014889601867781987e+00 -5.280100699402718867e+00
-2.588873949765496896e+00 1.555022247648887523e+00 6.038104781759264128e+00 1.555022247648887523e+00 -6.357389326564822696e+00 -2.835963533619183963e+00 6.038104781759264128e+00 -2.835963533619183963e+00 -6.578147301439414285e+00
-9.178952159733119842e+00 1.829754781193515312e+00 3.070989528550005065e+00 1.829754781193515312e+00 -4.187631225689395498e-01 -1.769251312345050176e+00 3.070989528550005065e+00 -1.769251312345050176e+00 -6.605723734613717646e+00
-1.635773484120153398e+01 1.138952032226336897e+00 -8.898716671228333597e-02 1.138952032226336897e+00 -1.597291361540726651e-01 -1.007830259555206665e+00 -8.898716671228333597e-02 -1.007830259555206665e+00 5.603347225348123128e-01
-1.654453805318314963e+01 -6.748995324185121936e-01 -7.944575572285120790e-01 -6.748995324185121936e-01 -6.716412259734555690e+00 -1.093214321993378535e+00 -7.944575572285120790e-01 -1.093214321993378535e+00 -3.568881389017775074e+00
-7.148263355521846663e+00 -7.321660867566074371e-01 -1.135227971918326029e+00 -7.321660867566074371e-01 -6.048514911480364020e+00 -3.827380993008181465e-01 -1.135227971918326029e+00 -3.827380993008181465e-01 -5.914266585176258140e+00
-7.865298803200355238e+00 1.705193337982866986e+00 -8.557385121239597936e-01 1.705193337982866986e+00 -6.600201755348507060e-01 4.918606981730018202e-01 -8.557385121239597936e-01 4.918606981730018202e-01 -3.332801497774887434e+00
-7.017844949901728135e+00 2.010290370015651362e+00 -5.235609118043665910e-02 2.010290370015651362e+00 -3.379026459666845561e+00 -9.699435623344127011e-02 -5.235609118043665910e-02 -9.699435623344127011e-02 1.742855866972828904e+00
-1.178369138265403571e+01 5.769562588510586121e-01 -1.636504614958817605e+00 5.769562588510586121e-01 -6.032814131625903187e+00 -1.742819358460748536e+00 -1.636504614958817605e+00 -1.742819358460748536e+00 2.334279744681911239e+00
-1.406496559024571269e+01 1.818585156524551438e+00 -3.568093077530219315e+00 1.818585156524551438e+00 -4.134046310612655262e+00 -2.524342801954148285e+00 -3.568093077530219315e+00 -2.524342801954148285e+00 3.531216197406182644e+00
-1.231677797709049216e+01 3.612236217810370853e+00 -2.784033634089542630e+00 3.612236217810370853e+00 -1.565696135863652527e+00 -2.610582024038036852e+00 -2.784033634089542630e+00 -2.610582024038036852e+00 1.103494231186708596e+01
-1.006653763544625413e+01 1.572949147103975154e+00 1.145405722926597480e+00 1.572949147103975154e+00 -1.560261331958211262e+00 -1.649652151831671798e+00 1.145405722926597480e+00 -1.649652151831671798e+00 1.485835521739008414e+01
-7.634492644495484370e+00 4.567301619336679996e-01 3.748962244667656929e+00 4.567301619336679996e-01 -1.136338911914937411e+00 6.355127513122442451e-02 3.748962244667656929e+00 6.355127513122442451e-02 9.528867980756036360e+00
-6.144502508778369787e+00 1.404018600285217300e+00 4.160299157701542683e+00 1.404018600285217300e+00 3.680679945693693167e+00 5.908221310907628698e-01 4.160299157701542683e+00 5.908221310907628698e-01 3.531560727099365860e+00
-7.515095845039666322e+00 1.672136766941445085e+00 3.864113965861922573e+00 1.672136766941445085e+00 6.863850728046251071e+00 -7.055824724589805641e-02 3.864113965861922573e+00 -7.055824724589805641e-02 4.829920112489999973e+00
-7.180413073775802069e+00 3.084555572388967271e+00 3.502568986433786780e+00 3.084555572388967271e+00 8.999981356493581330e+00 -7.503094001067295293e-01 3.502568986433786780e+00 -7.503094001067295293e-01 5.302819750242160346e+00
-8.559743813333248852e+00 1.904322671477024498e+00 4.211450641970973408e+00 1.904322671477024498e+00 7.418964749812780646e+00 -3.680557786591842073e-01 4.211450641970973408e+00 -3.680557786591842073e-01 5.734729789257020371e+00
-5.845852481007598023e+00 4.027428077740698997e-01 3.940520064833385128e+00 4.027428077740698997e-01 8.940020981930933530e+00 5.628728807222370401e-02 3.940520064833385128e+00 5.628728807222370401e-02 8.911712725884271435e+00
-7.767145116638950242e+00 8.535448617680566619e-01 3.870458009606689842e+00 8.535448617680566619e-01 9.573274798334539426e+00 8.344786999140874073e-01 3.870458009606689842e+00 8.344786999140874073e-01 1.165386009873325790e+01
-6.768121246743864283e+00 2.584686383416962219e+00 3.410356274500301765e+00 2.584686383416962219e+00 6.566707610333604173e+00 6.356732302334028306e-01 3.410356274500301765e+00 6.356732302334028306e-01 1.135502732962956429e+01
-4.822265416302188079e+00 3.604674725983823880e+00 2.295811143799980414e+00 3.604674725983823880e+00 2.223188848544842333e+00 2.505730942658603716e-02 2.295811143799980414e+00 2.505730942658603716e-02 1.060988138260837665e+01
-5.786256301483860831e-01 4.319003787035281761e+00 2.970250122192181763e+00 4.319003787035281761e+00 -1.053937489966575214e+00 -3.647281036981988439e-02 2.970250122192181763e+00 -3.647281036981988439e-02 1.504682964849499882e+01
1.119023264099755943e+00 3.818823783609919698e+00 4.535829238101320549e+00 3.818823783609919698e+00 -1.136408947801933911e+00 6.737040896535342327e-01 4.535829238101320549e+00 6.737040896535342327e-01 2.257134783125762922e+01
-8.275611751035332198e-01 2.867248454331170926e+00 3.299731716552006144e+00 2.867248454331170926e+00 -1.305111977263117673e+00 1.019352032689865295e+00 3.299731716552006144e+00 1.019352032689865295e+00 2.123454446726866252e+01
-9.988317327854991490e+00 3.480428345581106697e+00 9.992018592021115753e-01 3.480428345581106697e+00 1.401960045840823676e+00 -2.132432868340604915e-01 9.992018592021115753e-01 -2.132432868340604915e-01 1.200865984621258953e+01
-1.071307801399535897e+01 3.878893104987669815e+00 1.985213186457793322e+00 3.878893104987669815e+00 6.958966356633673023e+00 -1.281157217343197541e+00 1.985213186457793322e+00 -1.281157217343197541e+00 9.616396911902919342e+00
-9.060980222009519025e+00 1.420564913431806353e+00 2.209464366599400709e+00 1.420564913431806353e+00 8.011181600193170382e+00 -1.105594870707730548e+00 2.209464366599400709e+00 -1.105594870707730548e+00 6.710370771708669579e+00
-3.978860089829021063e-01 -2.441140717609218580e+00 -1.402790780330313292e-01 -2.441140717609218580e+00 9.130851206261620945e+00 -2.213248279059562229e+00 -1.402790780330313292e-01 -2.213248279059562229e+00 -2.390993072525829710e+00
3.666543138807127344e-01 -3.322784073039251496e+00 -3.364101710491000374e-01 -3.322784073039251496e+00 9.499816617210647962e+00 -3.511265950746904618e+00 -3.364101710491000374e-01 -3.511265950746904618e+00 -1.137544565537624486e+01
-9.357632463800948486e+00 -1.839900853924965496e+00 -8.391313490962498678e-01 -1.839900853924965496e+00 6.118404824790357743e+00 -3.665123104037559365e+00 -8.391313490962498678e-01 -3.665123104037559365e+00 -1.399532516763889056e+01
-1.694924145637775226e+01 -1.195160881735958247e+00 2.620537355067301469e-02 -1.195160881735958247e+00 3.408980213623304500e+00 -2.135212104728583249e+00 2.620537355067301469e-02 -2.135212104728583249e+00 -1.411973501498232864e+01
-1.247742902995054060e+01 -2.185368129315949925e+00 7.586598684210742183e-02 -2.185368129315949925e+00 -1.535741094655041605e+00 -1.154637875864094054e+00 7.586598684210742183e-02 -1.154637875864094054e+00 -9.183536335817159113e+00
-4.669743071669663514e+00 -1.525352156348598331e+00 -1.377577087543522483e+00 -1.525352156348598331e+00 -6.843162639545502302e+00 -1.133255089874765531e+00 -1.377577087543522483e+00 -1.133255089874765531e+00 -2.157136229854815124e+00
-1.833112727915384710e+01 2.132410414853190606e+00 -8.541052909423997308e-01 2.132410414853190606e+00 -1.143445548511982679e+01 -8.440610013730230898e-01 -8.541052909423997308e-01 -8.440610013730230898e-01 -6.183163004515376926e+00
-2.484287685305236693e+01 3.042895637604371650e+00 1.264073122532598292e+00 3.042895637604371650e+00 -4.205691146308657480e+00 -8.713069163922454452e-01 1.264073122532598292e+00 -8.713069163922454452e-01 -8.783436589453369692e+00
-2.691734787974650089e+01 3.746470511196748898e+00 6.927858945121404544e-01 3.746470511196748898e+00 -1.225449424070092697e+01 -4.619972609469768510e-01 6.927858945121404544e-01 -4.619972609469768510e-01 -8.509710367857714175e+00
-2.166882106614306380e+01 3.480923231658092476e+00 4.152892268850332802e-01 3.480923231658092476e+00 -1.485223449344423052e+01 -2.939841910701511130e-01 4.152892268850332802e-01 -2.939841910701511130e-01 -6.994595298407357831e-01
-1.607421173442016027e+01 5.082436272106396480e+00 1.723841893572694683e+00 5.082436272106396480e+00 -1.090527612653398926e+01 -4.302618635165937344e-01 1.723841893572694683e+00 -4.302618635165937344e-01 -4.620565475615352469e+00
-9.855870926282882749e+00 5.797014960564892405e+00 1.859539181395985397e+00 5.797014960564892405e+00 -7.386940413223468838e+00 -1.667393934555830626e+00 1.859539181395985397e+00 -1.667393934555830626e+00 -6.568787775779695082e+00
-7.089623924235588959e+00 3.116962703336366491e+00 1.308821401351432989e+00 3.116962703336366491e+00 -1.243935143396685916e+01 -1.349151771726361249e+00 1.308821401351432989e+00 -1.349151771726361249e+00 7.381351679084824369e+00