7.969060376473710683e+00 0.000000000000000000e+00 0.000000000000000000e+00 0.000000000000000000e+00 7.969060376473710683e+00 0.000000000000000000e+00 0.000000000000000000e+00 0.000000000000000000e+00 7.969060376473710683e+00
7.972457258694233495e+00 0.000000000000000000e+00 0.000000000000000000e+00 0.000000000000000000e+00 7.972457258694233495e+00 0.000000000000000000e+00 0.000000000000000000e+00 0.000000000000000000e+00 7.972457258694233495e+00
7.983512288468153528e+00 0.000000000000000000e+00 0.000000000000000000e+00 0.000000000000000000e+00 7.983512288468153528e+00 0.000000000000000000e+00 0.000000000000000000e+00 0.000000000000000000e+00 7.983512288468153528e+00
8.003458420724209432e+00 0.000000000000000000e+00 0.000000000000000000e+00 0.000000000000000000e+00 8.003458420724209432e+00 0.000000000000000000e+00 0.000000000000000000e+00 0.000000000000000000e+00 8.003458420724209432e+00
8.029076300729979465e+00 0.000000000000000000e+00 0.000000000000000000e+00 0.000000000000000000e+00 8.029076300729979465e+00 0.000000000000000000e+00 0.000000000000000000e+00 0.000000000000000000e+00 8.029076300729979465e+00
8.058095915185338853e+00 0.000000000000000000e+00 0.000000000000000000e+00 0.000000000000000000e+00 8.058095915185338853e+00 0.000000000000000000e+00 0.000000000000000000e+00 0.000000000000000000e+00 8.058095915185338853e+00
8.089848045618515116e+00 0.000000000000000000e+00 0.000000000000000000e+00 0.000000000000000000e+00 8.089848045618515116e+00 0.000000000000000000e+00 0.000000000000000000e+00 0.000000000000000000e+00 8.089848045618515116e+00
8.123536137849709959e+00 0.000000000000000000e+00 0.000000000000000000e+00 0.000000000000000000e+00 8.123536137849709959e+00 0.000000000000000000e+00 0.000000000000000000e+00 0.000000000000000000e+00 8.123536137849709959e+00
8.156088723166227794e+00 0.000000000000000000e+00 0.000000000000000000e+00 0.000000000000000000e+00 8.156088723166227794e+00 0.000000000000000000e+00 0.000000000000000000e+00 0.000000000000000000e+00 8.156088723166227794e+00
8.184782311384292797e+00 0.000000000000000000e+00 0.000000000000000000e+00 0.000000000000000000e+00 8.184782311384292797e+00 0.000000000000000000e+00 0.000000000000000000e+00 0.000000000000000000e+00 8.184782311384292797e+00
8.208509138603529820e+00 0.000000000000000000e+00 0.000000000000000000e+00 0.000000000000000000e+00 8.208509138603529820e+00 0.000000000000000000e+00 0.000000000000000000e+00 0.000000000000000000e+00 8.208509138603529820e+00
8.226440047257820964e+00 0.000000000000000000e+00 0.000000000000000000e+00 0.000000000000000000e+00 8.226440047257820964e+00 0.000000000000000000e+00 0.000000000000000000e+00 0.000000000000000000e+00 8.226440047257820964e+00
8.238072904091593429e+00 0.000000000000000000e+00 0.000000000000000000e+00 0.000000000000000000e+00 8.238072904091593429e+00 0.000000000000000000e+00 0.000000000000000000e+00 0.000000000000000000e+00 8.238072904091593429e+00
8.244928218620339422e+00 0.000000000000000000e+00 0.000000000000000000e+00 0.000000000000000000e+00 8.244928218620339422e+00 0.000000000000000000e+00 0.000000000000000000e+00 0.000000000000000000e+00 8.244928218620339422e+00
8.247261019945032245e+00 0.000000000000000000e+00 0.000000000000000000e+00 0.000000000000000000e+00 8.247261019945032245e+00 0.000000000000000000e+00 0.000000000000000000e+00 0.000000000000000000e+00 8.247261019945032245e+00
8.243731440109355546e+00 0.000000000000000000e+00 0.000000000000000000e+00 0.000000000000000000e+00 8.243731440109355546e+00 0.000000000000000000e+00 0.000000000000000000e+00 0.000000000000000000e+00 8.243731440109355546e+00
8.233628873177773144e+00 0.000000000000000000e+00 0.000000000000000000e+00 0.000000000000000000e+00 8.233628873177773144e+00 0.000000000000000000e+00 0.000000000000000000e+00 0.000000000000000000e+00 8.233628873177773144e+00
8.217458139959383345e+00 0.000000000000000000e+00 0.000000000000000000e+00 0.000000000000000000e+00 8.217458139959383345e+00 0.000000000000000000e+00 0.000000000000000000e+00 0.000000000000000000e+00 8.217458139959383345e+00
8.196640865016886934e+00 0.000000000000000000e+00 0.000000000000000000e+00 0.000000000000000000e+00 8.196640865016886934e+00 0.000000000000000000e+00 0.000000000000000000e+00 0.000000000000000000e+00 8.196640865016886934e+00
8.174874995288787360e+00 0.000000000000000000e+00 0.000000000000000000e+00 0.000000000000000000e+00 8.174874995288787360e+00 0.000000000000000000e+00 0.000000000000000000e+00 0.000000000000000000e+00 8.174874995288787360e+00
8.153416955591726634e+00 0.000000000000000000e+00 0.000000000000000000e+00 0.000000000000000000e+00 8.153416955591726634e+00 0.000000000000000000e+00 0.000000000000000000e+00 0.000000000000000000e+00 8.153416955591726634e+00
8.132354589178047988e+00 0.000000000000000000e+00 0.000000000000000000e+00 0.000000000000000000e+00 8.132354589178047988e+00 0.000000000000000000e+00 0.000000000000000000e+00 0.000000000000000000e+00 8.132354589178047988e+00
8.113060737026273728e+00 0.000000000000000000e+00 0.000000000000000000e+00 0.000000000000000000e+00 8.113060737026273728e+00 0.000000000000000000e+00 0.000000000000000000e+00 0.000000000000000000e+00 8.113060737026273728e+00
8.098851195329674013e+00 0.000000000000000000e+00 0.000000000000000000e+00 0.000000000000000000e+00 8.098851195329674013e+00 0.000000000000000000e+00 0.000000000000000000e+00 0.000000000000000000e+00 8.098851195329674013e+00
8.090076458413701488e+00 0.000000000000000000e+00 0.000000000000000000e+00 0.000000000000000000e+00 8.090076458413701488e+00 0.000000000000000000e+00 0.000000000000000000e+00 0.000000000000000000e+00 8.090076458413701488e+00
8.085723404405191772e+00 0.000000000000000000e+00 0.000000000000000000e+00 0.000000000000000000e+00 8.085723404405191772e+00 0.000000000000000000e+00 0.000000000000000000e+00 0.000000000000000000e+00 8.085723404405191772e+00
8.085696605752453081e+00 0.000000000000000000e+00 0.000000000000000000e+00 0.000000000000000000e+00 8.085696605752453081e+00 0.000000000000000000e+00 0.000000000000000000e+00 0.000000000000000000e+00 8.085696605752453081e+00
8.090266429212173094e+00 0.000000000000000000e+00 0.000000000000000000e+00 0.000000000000000000e+00 8.090266429212173094e+00 0.000000000000000000e+00 0.000000000000000000e+00 0.000000000000000000e+00 8.090266429212173094e+00
8.101357477718757139e+00 0.000000000000000000e+00 0.000000000000000000e+00 0.000000000000000000e+00 8.101357477718757139e+00 0.000000000000000000e+00 0.000000000000000000e+00 0.000000000000000000e+00 8.101357477718757139e+00
8.115731167015473702e+00 0.000000000000000000e+00 0.000000000000000000e+00 0.000000000000000000e+00 8.115731167015473702e+00 0.000000000000000000e+00 0.000000000000000000e+00 0.000000000000000000e+00 8.115731167015473702e+00
8.129716055390243667e+00 0.000000000000000000e+00 0.000000000000000000e+00 0.000000000000000000e+00 8.129716055390243667e+00 0.000000000000000000e+00 0.000000000000000000e+00 0.000000000000000000e+00 8.129716055390243667e+00
8.144004589888137247e+00 0.000000000000000000e+00 0.000000000000000000e+00 0.000000000000000000e+00 8.144004589888137247e+00 0.000000000000000000e+00 0.000000000000000000e+00 0.000000000000000000e+00 8.144004589888137247e+00
8.158630980259230725e+00 0.000000000000000000e+00 0.000000000000000000e+00 0.000000000000000000e+00 8.158630980259230725e+00 0.000000000000000000e+00 0.000000000000000000e+00 0.000000000000000000e+00 8.158630980259230725e+00
8.170994302711221735e+00 0.000000000000000000e+00 0.000000000000000000e+00 0.000000000000000000e+00 8.170994302711221735e+00 0.000000000000000000e+00 0.000000000000000000e+00 0.000000000000000000e+00 8.170994302711221735e+00
8.179615489444074683e+00 0.000000000000000000e+00 0.000000000000000000e+00 0.000000000000000000e+00 8.179615489444074683e+00 0.000000000000000000e+00 0.000000000000000000e+00 0.000000000000000000e+00 8.179615489444074683e+00
8.184464354004552078e+00 0.000000000000000000e+00 0.000000000000000000e+00 0.000000000000000000e+00 8.184464354004552078e+00 0.000000000000000000e+00 0.000000000000000000e+00 0.000000000000000000e+00 8.184464354004552078e+00
8.185638830519909703e+00 0.000000000000000000e+00 0.000000000000000000e+00 0.000000000000000000e+00 8.185638830519909703e+00 0.000000000000000000e+00 0.000000000000000000e+00 0.000000000000000000e+00 8.185638830519909703e+00
8.184117582534671698e+00 0.000000000000000000e+00 0.000000000000000000e+00 0.000000000000000000e+00 8.184117582534671698e+00 0.000000000000000000e+00 0.000000000000000000e+00 0.000000000000000000e+00 8.184117582534671698e+00
8.181389489487397526e+00 0.000000000000000000e+00 0.000000000000000000e+00 0.000000000000000000e+00 8.181389489487397526e+00 0.000000000000000000e+00 0.000000000000000000e+00 0.000000000000000000e+00 8.181389489487397526e+00
8.177886515583569604e+00 0.000000000000000000e+00 0.000000000000000000e+00 0.000000000000000000e+00 8.177886515583569604e+00 0.000000000000000000e+00 0.000000000000000000e+00 0.000000000000000000e+00 8.177886515583569604e+00
8.173210422187571211e+00 0.000000000000000000e+00 0.000000000000000000e+00 0.000000000000000000e+00 8.173210422187571211e+00 0.000000000000000000e+00 0.000000000000000000e+00 0.000000000000000000e+00 8.173210422187571211e+00
8.167238294141940358e+00 0.000000000000000000e+00 0.000000000000000000e+00 0.000000000000000000e+00 8.167238294141940358e+00 0.000000000000000000e+00 0.000000000000000000e+00 0.000000000000000000e+00 8.167238294141940358e+00
8.160135406988297646e+00 0.000000000000000000e+00 0.000000000000000000e+00 0.000000000000000000e+00 8.160135406988297646e+00 0.000000000000000000e+00 0.000000000000000000e+00 0.000000000000000000e+00 8.160135406988297646e+00
8.151636311253652067e+00 0.000000000000000000e+00 0.000000000000000000e+00 0.000000000000000000e+00 8.151636311253652067e+00 0.000000000000000000e+00 0.000000000000000000e+00 0.000000000000000000e+00 8.151636311253652067e+00
8.141608454990011623e+00 0.000000000000000000e+00 0.000000000000000000e+00 0.000000000000000000e+00 8.141608454990011623e+00 0.000000000000000000e+00 0.000000000000000000e+00 0.000000000000000000e+00 8.141608454990011623e+00
8.130638626473647435e+00 0.000000000000000000e+00 0.000000000000000000e+00 0.000000000000000000e+00 8.130638626473647435e+00 0.000000000000000000e+00 0.000000000000000000e+00 0.000000000000000000e+00 8.130638626473647435e+00
8.119734123095252443e+00 0.000000000000000000e+00 0.000000000000000000e+00 0.000000000000000000e+00 8.119734123095252443e+00 0.000000000000000000e+00 0.000000000000000000e+00 0.000000000000000000e+00 8.119734123095252443e+00
8.109646327395640952e+00 0.000000000000000000e+00 0.000000000000000000e+00 0.000000000000000000e+00 8.109646327395640952e+00 0.000000000000000000e+00 0.000000000000000000e+00 0.000000000000000000e+00 8.109646327395640952e+00
8.098474910779680513e+00 0.000000000000000000e+00 0.000000000000000000e+00 0.000000000000000000e+00 8.098474910779680513e+00 0.000000000000000000e+00 0.000000000000000000e+00 0.000000000000000000e+00 8.098474910779680513e+00
8.086172193101829109e+00 0.000000000000000000e+00 0.000000000000000000e+00 0.000000000000000000e+00 8.086172193101829109e+00 0.000000000000000000e+00 0.000000000000000000e+00 0.000000000000000000e+00 8.086172193101829109e+00
8.075517081433860156e+00 0.000000000000000000e+00 0.000000000000000000e+00 0.000000000000000000e+00 8.075517081433860156e+00 0.000000000000000000e+00 0.000000000000000000e+00 0.000000000000000000e+00 8.075517081433860156e+00
8.068289785368351730e+00 0.000000000000000000e+00 0.000000000000000000e+00 0.000000000000000000e+00 8.068289785368351730e+00 0.000000000000000000e+00 0.000000000000000000e+00 0.000000000000000000e+00 8.068289785368351730e+00
8.063409523456609662e+00 0.000000000000000000e+00 0.000000000000000000e+00 0.000000000000000000e+00 8.063409523456609662e+00 0.000000000000000000e+00 0.000000000000000000e+00 0.000000000000000000e+00 8.063409523456609662e+00
8.059242642859429040e+00 0.000000000000000000e+00 0.000000000000000000e+00 0.000000000000000000e+00 8.059242642859429040e+00 0.000000000000000000e+00 0.000000000000000000e+00 0.000000000000000000e+00 8.059242642859429040e+00
8.055988621940553429e+00 0.000000000000000000e+00 0.000000000000000000e+00 0.000000000000000000e+00 8.055988621940553429e+00 0.000000000000000000e+00 0.000000000000000000e+00 0.000000000000000000e+00 8.055988621940553429e+00
8.056379801567805643e+00 0.000000000000000000e+00 0.000000000000000000e+00 0.000000000000000000e+00 8.056379801567805643e+00 0.000000000000000000e+00 0.000000000000000000e+00 0.000000000000000000e+00 8.056379801567805643e+00
8.059810100007974043e+00 0.000000000000000000e+00 0.000000000000000000e+00 0.000000000000000000e+00 8.059810100007974043e+00 0.000000000000000000e+00 0.000000000000000000e+00 0.000000000000000000e+00 8.059810100007974043e+00
8.063631941468305087e+00 0.000000000000000000e+00 0.000000000000000000e+00 0.000000000000000000e+00 8.063631941468305087e+00 0.000000000000000000e+00 0.000000000000000000e+00 0.000000000000000000e+00 8.063631941468305087e+00
8.067983993495582595e+00 0.000000000000000000e+00 0.000000000000000000e+00 0.000000000000000000e+00 8.067983993495582595e+00 0.000000000000000000e+00 0.000000000000000000e+00 0.000000000000000000e+00 8.067983993495582595e+00
8.074937474947249783e+00 0.000000000000000000e+00 0.000000000000000000e+00 0.000000000000000000e+00 8.074937474947249783e+00 0.000000000000000000e+00 0.000000000000000000e+00 0.000000000000000000e+00 8.074937474947249783e+00
8.085339361565857530e+00 0.000000000000000000e+00 0.000000000000000000e+00 0.000000000000000000e+00 8.085339361565857530e+00 0.000000000000000000e+00 0.000000000000000000e+00 0.000000000000000000e+00 8.085339361565857530e+00
8.097355492642389407e+00 0.000000000000000000e+00 0.000000000000000000e+00 0.000000000000000000e+00 8.097355492642389407e+00 0.000000000000000000e+00 0.000000000000000000e+00 0.000000000000000000e+00 8.097355492642389407e+00
8.109727641886571803e+00 0.000000000000000000e+00 0.000000000000000000e+00 0.000000000000000000e+00 8.109727641886571803e+00 0.000000000000000000e+00 0.000000000000000000e+00 0.000000000000000000e+00 8.109727641886571803e+00
8.123145873779188619e+00 0.000000000000000000e+00 0.000000000000000000e+00 0.000000000000000000e+00 8.123145873779188619e+00 0.000000000000000000e+00 0.000000000000000000e+00 0.000000000000000000e+00 8.123145873779188619e+00
8.136639047173419570e+00 0.000000000000000000e+00 0.000000000000000000e+00 0.000000000000000000e+00 8.136639047173419570e+00 0.000000000000000000e+00 0.000000000000000000e+00 0.000000000000000000e+00 8.136639047173419570e+00
8.147643192290244585e+00 0.000000000000000000e+00 0.000000000000000000e+00 0.000000000000000000e+00 8.147643192290244585e+00 0.000000000000000000e+00 0.000000000000000000e+00 0.000000000000000000e+00 8.147643192290244585e+00
8.154905906562875728e+00 0.000000000000000000e+00 0.000000000000000000e+00 0.000000000000000000e+00 8.154905906562875728e+00 0.000000000000000000e+00 0.000000000000000000e+00 0.000000000000000000e+00 8.154905906562875728e+00
8.158798576789493495e+00 0.000000000000000000e+00 0.000000000000000000e+00 0.000000000000000000e+00 8.158798576789493495e+00 0.000000000000000000e+00 0.000000000000000000e+00 0.000000000000000000e+00 8.158798576789493495e+00
8.161575427666104332e+00 0.000000000000000000e+00 0.000000000000000000e+00 0.000000000000000000e+00 8.161575427666104332e+00 0.000000000000000000e+00 0.000000000000000000e+00 0.000000000000000000e+00 8.161575427666104332e+00
8.164596379946591043e+00 0.000000000000000000e+00 0.000000000000000000e+00 0.000000000000000000e+00 8.164596379946591043e+00 0.000000000000000000e+00 0.000000000000000000e+00 0.000000000000000000e+00 8.164596379946591043e+00
8.166515975944818706e+00 0.000000000000000000e+00 0.000000000000000000e+00 0.000000000000000000e+00 8.166515975944818706e+00 0.000000000000000000e+00 0.000000000000000000e+00 0.000000000000000000e+00 8.166515975944818706e+00
8.166239860064226974e+00 0.000000000000000000e+00 0.000000000000000000e+00 0.000000000000000000e+00 8.166239860064226974e+00 0.000000000000000000e+00 0.000000000000000000e+00 0.000000000000000000e+00 8.166239860064226974e+00
8.164971699688138074e+00 0.000000000000000000e+00 0.000000000000000000e+00 0.000000000000000000e+00 8.164971699688138074e+00 0.000000000000000000e+00 0.000000000000000000e+00 0.000000000000000000e+00 8.164971699688138074e+00
8.164173033621501929e+00 0.000000000000000000e+00 0.000000000000000000e+00 0.000000000000000000e+00 8.164173033621501929e+00 0.000000000000000000e+00 0.000000000000000000e+00 0.000000000000000000e+00 8.164173033621501929e+00
8.163521354465762769e+00 0.000000000000000000e+00 0.000000000000000000e+00 0.000000000000000000e+00 8.163521354465762769e+00 0.000000000000000000e+00 0.000000000000000000e+00 0.000000000000000000e+00 8.163521354465762769e+00
8.163446590154128657e+00 0.000000000000000000e+00 0.000000000000000000e+00 0.000000000000000000e+00 8.163446590154128657e+00 0.000000000000000000e+00 0.000000000000000000e+00 0.000000000000000000e+00 8.163446590154128657e+00
8.166083034220962489e+00 0.000000000000000000e+00 0.000000000000000000e+00 0.000000000000000000e+00 8.166083034220962489e+00 0.000000000000000000e+00 0.000000000000000000e+00 0.000000000000000000e+00 8.166083034220962489e+00
8.171753905734718160e+00 0.000000000000000000e+00 0.000000000000000000e+00 0.000000000000000000e+00 8.171753905734718160e+00 0.000000000000000000e+00 0.000000000000000000e+00 0.000000000000000000e+00 8.171753905734718160e+00
8.178278631803431509e+00 0.000000000000000000e+00 0.000000000000000000e+00 0.000000000000000000e+00 8.178278631803431509e+00 0.000000000000000000e+00 0.000000000000000000e+00 0.000000000000000000e+00 8.178278631803431509e+00
8.183873375518400550e+00 0.000000000000000000e+00 0.000000000000000000e+00 0.000000000000000000e+00 8.183873375518400550e+00 0.000000000000000000e+00 0.000000000000000000e+00 0.000000000000000000e+00 8.183873375518400550e+00
8.188053123183514970e+00 0.000000000000000000e+00 0.000000000000000000e+00 0.000000000000000000e+00 8.188053123183514970e+00 0.000000000000000000e+00 0.000000000000000000e+00 0.000000000000000000e+00 8.188053123183514970e+00
8.190308963868217162e+00 0.000000000000000000e+00 0.000000000000000000e+00 0.000000000000000000e+00 8.190308963868217162e+00 0.000000000000000000e+00 0.000000000000000000e+00 0.000000000000000000e+00 8.190308963868217162e+00
8.190823545221130431e+00 0.000000000000000000e+00 0.000000000000000000e+00 0.000000000000000000e+00 8.190823545221130431e+00 0.000000000000000000e+00 0.000000000000000000e+00 0.000000000000000000e+00 8.190823545221130431e+00
8.189223300902618519e+00 0.000000000000000000e+00 0.000000000000000000e+00 0.000000000000000000e+00 8.189223300902618519e+00 0.000000000000000000e+00 0.000000000000000000e+00 0.000000000000000000e+00 8.189223300902618519e+00
8.185723347917402748e+00 0.000000000000000000e+00 0.000000000000000000e+00 0.000000000000000000e+00 8.185723347917402748e+00 0.000000000000000000e+00 0.000000000000000000e+00 0.000000000000000000e+00 8.185723347917402748e+00
8.181725345701106988e+00 0.000000000000000000e+00 0.000000000000000000e+00 0.000000000000000000e+00 8.181725345701106988e+00 0.000000000000000000e+00 0.000000000000000000e+00 0.000000000000000000e+00 8.181725345701106988e+00
8.179416770521962476e+00 0.000000000000000000e+00 0.000000000000000000e+00 0.000000000000000000e+00 8.179416770521962476e+00 0.000000000000000000e+00 0.000000000000000000e+00 0.000000000000000000e+00 8.179416770521962476e+00
8.177419162390796359e+00 0.000000000000000000e+00 0.000000000000000000e+00 0.000000000000000000e+00 8.177419162390796359e+00 0.000000000000000000e+00 0.000000000000000000e+00 0.000000000000000000e+00 8.177419162390796359e+00
8.173099738838699224e+00 0.000000000000000000e+00 0.000000000000000000e+00 0.000000000000000000e+00 8.173099738838699224e+00 0.000000000000000000e+00 0.000000000000000000e+00 0.000000000000000000e+00 8.173099738838699224e+00
8.167004994281883867e+00 0.000000000000000000e+00 0.000000000000000000e+00 0.000000000000000000e+00 8.167004994281883867e+00 0.000000000000000000e+00 0.000000000000000000e+00 0.000000000000000000e+00 8.167004994281883867e+00
8.161253265930563217e+00 0.000000000000000000e+00 0.000000000000000000e+00 0.000000000000000000e+00 8.161253265930563217e+00 0.000000000000000000e+00 0.000000000000000000e+00 0.000000000000000000e+00 8.161253265930563217e+00
8.156434347944706786e+00 0.000000000000000000e+00 0.000000000000000000e+00 0.000000000000000000e+00 8.156434347944706786e+00 0.000000000000000000e+00 0.000000000000000000e+00 0.000000000000000000e+00 8.156434347944706786e+00
8.151059734607599694e+00 0.000000000000000000e+00 0.000000000000000000e+00 0.000000000000000000e+00 8.151059734607599694e+00 0.000000000000000000e+00 0.000000000000000000e+00 0.000000000000000000e+00 8.151059734607599694e+00
8.145047372493566584e+00 0.000000000000000000e+00 0.000000000000000000e+00 0.000000000000000000e+00 8.145047372493566584e+00 0.000000000000000000e+00 0.000000000000000000e+00 0.000000000000000000e+00 8.145047372493566584e+00
8.139592253471874983e+00 0.000000000000000000e+00 0.000000000000000000e+00 0.000000000000000000e+00 8.139592253471874983e+00 0.000000000000000000e+00 0.000000000000000000e+00 0.000000000000000000e+00 8.139592253471874983e+00
8.135249388971709905e+00 0.000000000000000000e+00 0.000000000000000000e+00 0.000000000000000000e+00 8.135249388971709905e+00 0.000000000000000000e+00 0.000000000000000000e+00 0.000000000000000000e+00 8.135249388971709905e+00
8.131370210423430223e+00 0.000000000000000000e+00 0.000000000000000000e+00 0.000000000000000000e+00 8.131370210423430223e+00 0.000000000000000000e+00 0.000000000000000000e+00 0.000000000000000000e+00 8.131370210423430223e+00
8.126878675509056293e+00 0.000000000000000000e+00 0.000000000000000000e+00 0.000000000000000000e+00 8.126878675509056293e+00 0.000000000000000000e+00 0.000000000000000000e+00 0.000000000000000000e+00 8.126878675509056293e+00
8.121578674247460938e+00 0.000000000000000000e+00 0.000000000000000000e+00 0.000000000000000000e+00 8.121578674247460938e+00 0.000000000000000000e+00 0.000000000000000000e+00 0.000000000000000000e+00 8.121578674247460938e+00
8.117167970784798570e+00 0.000000000000000000e+00 0.000000000000000000e+00 0.000000000000000000e+00 8.117167970784798570e+00 0.000000000000000000e+00 0.000000000000000000e+00 0.000000000000000000e+00 8.117167970784798570e+00
8.114497341529743224e+00 0.000000000000000000e+00 0.000000000000000000e+00 0.000000000000000000e+00 8.114497341529743224e+00 0.000000000000000000e+00 0.000000000000000000e+00 0.000000000000000000e+00 8.114497341529743224e+00
8.111774972640517944e+00 0.000000000000000000e+00 0.000000000000000000e+00 0.000000000000000000e+00 8.111774972640517944e+00 0.000000000000000000e+00 0.000000000000000000e+00 0.000000000000000000e+00 8.111774972640517944e+00
8.107644123906929678e+00 0.000000000000000000e+00 0.000000000000000000e+00 0.000000000000000000e+00 8.107644123906929678e+00 0.000000000000000000e+00 0.000000000000000000e+00 0.000000000000000000e+00 8.107644123906929678e+00
8.102888297390897776e+00 0.000000000000000000e+00 0.000000000000000000e+00 0.000000000000000000e+00 8.102888297390897776e+00 0.000000000000000000e+00 0.000000000000000000e+00 0.000000000000000000e+00 8.102888297390897776e+00
8.097722922771350085e+00 0.000000000000000000e+00 0.000000000000000000e+00 0.000000000000000000e+00 8.097722922771350085e+00 0.000000000000000000e+00 0.000000000000000000e+00 0.000000000000000000e+00 8.097722922771350085e+00
8.091468861209611063e+00 0.000000000000000000e+00 0.000000000000000000e+00 0.000000000000000000e+00 8.091468861209611063e+00 0.000000000000000000e+00 0.000000000000000000e+00 0.000000000000000000e+00 8.091468861209611063e+00
8.084295666048681994e+00 0.000000000000000000e+00 0.000000000000000000e+00 0.000000000000000000e+00 8.084295666048681994e+00 0.000000000000000000e+00 0.000000000000000000e+00 0.000000000000000000e+00 8.084295666048681994e+00
8.077180607740102047e+00 0.000000000000000000e+00 0.000000000000000000e+00 0.000000000000000000e+00 8.077180607740102047e+00 0.000000000000000000e+00 0.000000000000000000e+00 0.000000000000000000e+00 8.077180607740102047e+00
8.071768909193467678e+00 0.000000000000000000e+00 0.000000000000000000e+00 0.000000000000000000e+00 8.071768909193467678e+00 0.000000000000000000e+00 0.000000000000000000e+00 0.000000000000000000e+00 8.071768909193467678e+00
8.068550813962792390e+00 0.000000000000000000e+00 0.000000000000000000e+00 0.000000000000000000e+00 8.068550813962792390e+00 0.000000000000000000e+00 0.000000000000000000e+00 0.000000000000000000e+00 8.068550813962792390e+00
8.066303354426846539e+00 0.000000000000000000e+00 0.000000000000000000e+00 0.000000000000000000e+00 8.066303354426846539e+00 0.000000000000000000e+00 0.000000000000000000e+00 0.000000000000000000e+00 8.066303354426846539e+00
8.064843596693652472e+00 0.000000000000000000e+00 0.000000000000000000e+00 0.000000000000000000e+00 8.064843596693652472e+00 0.000000000000000000e+00 0.000000000000000000e+00 0.000000000000000000e+00 8.064843596693652472e+00
8.064711772456472971e+00 0.000000000000000000e+00 0.000000000000000000e+00 0.000000000000000000e+00 8.064711772456472971e+00 0.000000000000000000e+00 0.000000000000000000e+00 0.000000000000000000e+00 8.064711772456472971e+00
8.066663204447442226e+00 0.000000000000000000e+00 0.000000000000000000e+00 0.000000000000000000e+00 8.066663204447442226e+00 0.000000000000000000e+00 0.000000000000000000e+00 0.000000000000000000e+00 8.066663204447442226e+00
8.070492470747032243e+00 0.000000000000000000e+00 0.000000000000000000e+00 0.000000000000000000e+00 8.070492470747032243e+00 0.000000000000000000e+00 0.000000000000000000e+00 0.000000000000000000e+00 8.070492470747032243e+00
8.075904034875438953e+00 0.000000000000000000e+00 0.000000000000000000e+00 0.000000000000000000e+00 8.075904034875438953e+00 0.000000000000000000e+00 0.000000000000000000e+00 0.000000000000000000e+00 8.075904034875438953e+00
8.083149081401771241e+00 0.000000000000000000e+00 0.000000000000000000e+00 0.000000000000000000e+00 8.083149081401771241e+00 0.000000000000000000e+00 0.000000000000000000e+00 0.000000000000000000e+00 8.083149081401771241e+00
8.091854101693051859e+00 0.000000000000000000e+00 0.000000000000000000e+00 0.000000000000000000e+00 8.091854101693051859e+00 0.000000000000000000e+00 0.000000000000000000e+00 0.000000000000000000e+00 8.091854101693051859e+00
8.100681980465122223e+00 0.000000000000000000e+00 0.000000000000000000e+00 0.000000000000000000e+00 8.100681980465122223e+00 0.000000000000000000e+00 0.000000000000000000e+00 0.000000000000000000e+00 8.100681980465122223e+00
8.109394541182000538e+00 0.000000000000000000e+00 0.000000000000000000e+00 0.000000000000000000e+00 8.109394541182000538e+00 0.000000000000000000e+00 0.000000000000000000e+00 0.000000000000000000e+00 8.109394541182000538e+00
8.118009556709376184e+00 0.000000000000000000e+00 0.000000000000000000e+00 0.000000000000000000e+00 8.118009556709376184e+00 0.000000000000000000e+00 0.000000000000000000e+00 0.000000000000000000e+00 8.118009556709376184e+00
8.125568564795450754e+00 0.000000000000000000e+00 0.000000000000000000e+00 0.000000000000000000e+00 8.125568564795450754e+00 0.000000000000000000e+00 0.000000000000000000e+00 0.000000000000000000e+00 8.125568564795450754e+00
8.131017255025147605e+00 0.000000000000000000e+00 0.000000000000000000e+00 0.000000000000000000e+00 8.131017255025147605e+00 0.000000000000000000e+00 0.000000000000000000e+00 0.000000000000000000e+00 8.131017255025147605e+00
8.134475910664084708e+00 0.000000000000000000e+00 0.000000000000000000e+00 0.000000000000000000e+00 8.134475910664084708e+00 0.000000000000000000e+00 0.000000000000000000e+00 0.000000000000000000e+00 8.134475910664084708e+00
8.136865799533165244e+00 0.000000000000000000e+00 0.000000000000000000e+00 0.000000000000000000e+00 8.136865799533165244e+00 0.000000000000000000e+00 0.000000000000000000e+00 0.000000000000000000e+00 8.136865799533165244e+00
8.140184691680621754e+00 0.000000000000000000e+00 0.000000000000000000e+00 0.000000000000000000e+00 8.140184691680621754e+00 0.000000000000000000e+00 0.000000000000000000e+00 0.000000000000000000e+00 8.140184691680621754e+00
8.146519883720348076e+00 0.000000000000000000e+00 0.000000000000000000e+00 0.000000000000000000e+00 8.146519883720348076e+00 0.000000000000000000e+00 0.000000000000000000e+00 0.000000000000000000e+00 8.146519883720348076e+00
8.155304164798382160e+00 0.000000000000000000e+00 0.000000000000000000e+00 0.000000000000000000e+00 8.155304164798382160e+00 0.000000000000000000e+00 0.000000000000000000e+00 0.000000000000000000e+00 8.155304164798382160e+00
8.164694773951207907e+00 0.000000000000000000e+00 0.000000000000000000e+00 0.000000000000000000e+00 8.164694773951207907e+00 0.000000000000000000e+00 0.000000000000000000e+00 0.000000000000000000e+00 8.164694773951207907e+00
8.172745032187496150e+00 0.000000000000000000e+00 0.000000000000000000e+00 0.000000000000000000e+00 8.172745032187496150e+00 0.000000000000000000e+00 0.000000000000000000e+00 0.000000000000000000e+00 8.172745032187496150e+00
8.179688952188200801e+00 0.000000000000000000e+00 0.000000000000000000e+00 0.000000000000000000e+00 8.179688952188200801e+00 0.000000000000000000e+00 0.000000000000000000e+00 0.000000000000000000e+00 8.179688952188200801e+00
8.187274451032786615e+00 0.000000000000000000e+00 0.000000000000000000e+00 0.000000000000000000e+00 8.187274451032786615e+00 0.000000000000000000e+00 0.000000000000000000e+00 0.000000000000000000e+00 8.187274451032786615e+00
8.195545675693125531e+00 0.000000000000000000e+00 0.000000000000000000e+00 0.000000000000000000e+00 8.195545675693125531e+00 0.000000000000000000e+00 0.000000000000000000e+00 0.000000000000000000e+00 8.195545675693125531e+00