7.930613479634000207e+00 1.081314499639999954e-01 7.854028563239999983e+00 7.928721388449000429e+00 1.066523599910000064e-01 3.871622593446999883e+00 7.919263520388000188e+00 4.095696555552000184e+00 7.849988041562999896e+00 7.935296603631999623e+00 4.084927651363999601e+00 3.867880365022000166e+00 3.945235186350000145e+00 1.150632815059999953e-01 7.847448839155999778e+00 3.943001199304999815e+00 1.080535958959999987e-01 3.868184484671000067e+00 3.937301313936000025e+00 4.092748355439000285e+00 7.851783068659000442e+00 3.946749383749999840e+00 4.097436590857999938e+00 3.860842795558999896e+00 1.962574040660999941e+00 2.045898767548000041e+00 5.971308587644999832e+00 5.932498425949000342e+00 2.036384816372999840e+00 5.979537711415000345e+00 5.929891842099999977e+00 6.040123945346000056e+00 5.969473903065000364e+00 1.949563853339999930e+00 6.019019208648000330e+00 1.981484823526999950e+00 1.944450669085999950e+00 6.021882568716000250e+00 5.965057583383000406e+00 5.932096153582000042e+00 2.047129844875999805e+00 1.985081072849999906e+00 5.928121009850999990e+00 6.018393115611999633e+00 1.966899241494000083e+00 1.945823495731000108e+00 2.038908045169999905e+00 1.994129222108999899e+00 1.992462517834999947e+00 2.022481864411000085e+00 7.965051709007999747e+00 7.953893109880000090e+00 1.991013951703000107e+00 2.003485934061000062e+00 1.994726954948000008e+00 2.900736599999999979e-05 1.980041578208000086e+00 2.004416162290000081e+00 2.011479494413999980e+00 3.969869612006999837e+00 5.064101365000000382e-03 1.979693272767000023e+00 5.975141070931000442e+00 2.004646141527000047e+00 1.430010019399999971e-02 5.970137679483999982e+00 1.986500168826000001e+00 5.982372909218000245e+00 7.952994795149000318e+00 1.879965393599999923e-02 5.984801879973000283e+00 1.994407475612000047e+00 1.995894264951000086e+00 4.003531365873000070e+00 1.991339490644999932e+00 2.001232378635000142e+00 5.971605290125999943e+00 4.003456895934999871e+00 2.249094437000000082e-03 5.985757152418999638e+00 5.976043004403999603e+00 1.968445129238000080e+00 4.013706177625000038e+00 5.963887858651999885e+00 5.986120180611999686e+00 1.971628662899000073e+00 1.395860134600000052e-02 3.975029638011999822e+00 1.988425911508999944e+00 1.971268605324999923e+00 5.962635785987999704e+00 7.963666736078000241e+00 2.013442591352999855e+00 5.944341408678000427e+00 1.992338972777000006e+00 4.009164478007000376e+00 4.004751864324999744e+00 1.978603749704999970e+00 5.996753975690999994e+00 5.964485825564000088e+00 7.959084386205000250e+00 5.963126874481000428e+00 5.981851058728000048e+00 5.955475660002999660e+00 7.956408918209000092e+00 3.986175254633999909e+00 5.972064649716999796e+00 1.996942858319999958e+00 5.964645146509999662e+00 3.991130170263000210e+00 1.983394267396999977e+00 5.975176526734999882e+00 5.967347420500000332e+00 3.979902682936999891e+00 3.993339183135999892e+00 5.986631796932999627e+00 5.978488958105000250e+00 5.977914260590999618e+00 3.994396882220999867e+00 5.995928377395999931e+00
7.942990331709999907e+00 1.042003865980000027e-01 7.873254209021999905e+00 7.930774165119999886e+00 9.485344816400000101e-02 3.897997516668000095e+00 7.874178346545000373e+00 4.108607424289999699e+00 7.848654037471000322e+00 7.970228174042000013e+00 4.044421598227000203e+00 3.876126395912999900e+00 3.954770513136999899e+00 1.453167169709999873e-01 7.834245271032999725e+00 3.942357012470000033e+00 1.028960417560000062e-01 3.877156204169000198e+00 3.908060029061999785e+00 4.091305115997999842e+00 7.860003971550000301e+00 3.964906232225999805e+00 4.119871183682000115e+00 3.833389870766000129e+00 2.038216878201999815e+00 2.065095733381999921e+00 5.972590164932999990e+00 5.945560989674000041e+00 2.018584782102000208e+00 6.016937380709999950e+00 5.926761108677999879e+00 6.106131738014999755e+00 5.957480361975999728e+00 1.972746378319000016e+00 5.985818875354000035e+00 1.955370563440000042e+00 1.938317718386000088e+00 6.005176620141999599e+00 5.937271448828999709e+00 5.939814066009000193e+00 2.068753822115000141e+00 1.980058960482000030e+00 5.929366120707999954e+00 5.982280190073000270e+00 1.876708133643999910e+00 1.946028440094000000e+00 2.023404178557000055e+00 2.027232099913999885e+00 1.995978016533999977e+00 2.166809089753999995e+00 7.832832275578000214e+00 7.799981601267999665e+00 1.982370639608999952e+00 2.069943692392000045e+00 2.008121050913000083e+00 7.910481334504000372e+00 1.924533611923999965e+00 2.071509572625000128e+00 2.104283970766000156e+00 4.046594954981999948e+00 3.352526786499999967e-02 1.916416068843000087e+00 5.972207520193999919e+00 2.065731615288000089e+00 8.675521308700000211e-02 5.944692310547999625e+00 1.960709230386000090e+00 6.011726914638000352e+00 7.881553832717999697e+00 1.206675212359999971e-01 6.021316877369000231e+00 2.011999217160000075e+00 2.014419132645000055e+00 4.176413573202999885e+00 1.992051188013000074e+00 2.043904627954999942e+00 5.953838234861000167e+00 4.072525980320000016e+00 2.200493395599999874e-02 6.036962189418000335e+00 5.976273466980999594e+00 1.860616932095999987e+00 4.133105282722000062e+00 5.908379362099999810e+00 6.038533689607000099e+00 1.867724410732999996e+00 4.699954471199999789e-02 4.005288205931999634e+00 1.969685394801999889e+00 1.871110288201000005e+00 5.901422943510000074e+00 4.127402115499999996e-02 2.125680588993000164e+00 5.793092938534999625e+00 1.996768158023999984e+00 4.130711855609000338e+00 4.087072614699000184e+00 1.917283247114000000e+00 6.105570554616000400e+00 5.915126809908000105e+00 7.942587775018999707e+00 5.909852050768000353e+00 6.018680888709000421e+00 5.854605334599000344e+00 7.836675918205999736e+00 3.923561245186999891e+00 5.945179203876000074e+00 2.024875872837999857e+00 5.912028307207999767e+00 3.982171483753000008e+00 1.946755589324999924e+00 5.977802956308999605e+00 5.911164776281999877e+00 4.024401626110999608e+00 4.004087189229999844e+00 6.031522040199000401e+00 5.994560864730999583e+00 5.991986675764000125e+00 4.005536835250000038e+00 6.097141532009000109e+00
7.961214412060000356e+00 1.001664956659999994e-01 7.899796807052999803e+00 7.935752736123999895e+00 8.158507172600000523e-02 3.928048691547000093e+00 7.832735833796999891e+00 4.126157542765000130e+00 7.853687709344000289e+00 2.442700817000000024e-02 4.010158354745000153e+00 3.889893589140000163e+00 3.969295934798999781e+00 1.744823510200000094e-01 7.830433902802999668e+00 3.950071454170999807e+00 9.639559802000000066e-02 3.888887610747000068e+00 3.886958745812000071e+00 4.094983015249000324e+00 7.876350092920000101e+00 3.991886036718999886e+00 4.148378466884000026e+00 3.810116702359000129e+00 2.097096039674999801e+00 2.072053311837000145e+00 5.975032596695999842e+00 5.976877754491000339e+00 2.027651950006999826e+00 6.042913485811999941e+00 5.926099524109999628e+00 6.157570883304000375e+00 5.933063423197999953e+00 2.007095105803000212e+00 5.981155710630000399e+00 1.925624276391000089e+00 1.940032419545000053e+00 6.010146026846999945e+00 5.919507919762000192e+00 5.937182343088999836e+00 2.078887096662000111e+00 1.980800578593999939e+00 5.950058056537000262e+00 5.977125375878999947e+00 1.817489225881999904e+00 1.947715736668000019e+00 2.012462014911999830e+00 2.049843496214999838e+00 1.995736216487999926e+00 2.304545083562000052e+00 7.714895718002000358e+00 7.768187075141000264e+00 1.979070846009999940e+00 2.164226144740999835e+00 2.019723775165000124e+00 7.909213123946999602e+00 1.882192868378000039e+00 2.146101033868000219e+00 2.202741684620999951e+00 4.203418688204999754e+00 5.049235454900000142e-02 1.857871672179999933e+00 5.971276071371000249e+00 2.120256792801999968e+00 1.535068823809999927e-01 5.938405626305000240e+00 1.947885124031000004e+00 6.041279395613999625e+00 7.888271785231999900e+00 1.091212274099999935e-01 6.052424249110999632e+00 2.045411282866000047e+00 2.023186446442999831e+00 4.164009803631000040e+00 2.003053515703999921e+00 2.079898921143000123e+00 5.966117748467000048e+00 4.016634661919000315e+00 2.131987677499999970e-02 6.117044784479999997e+00 5.977433095105999961e+00 1.784242044623000067e+00 4.131043745456000060e+00 5.877073026409999734e+00 6.107593139571999785e+00 1.765979199013999912e+00 3.345568946300000318e-02 4.046809022830999858e+00 1.966143188465000025e+00 1.779465556582999985e+00 5.863716331254999581e+00 1.279935415719999914e-01 2.245597294671000110e+00 5.676372642545000069e+00 2.022219999174999838e+00 4.187160870586000172e+00 4.098205499001999819e+00 1.889698496707000075e+00 6.233003151293000421e+00 5.900935251678999904e+00 8.955772274000000505e-03 5.891120298608999661e+00 6.078643716533999708e+00 5.794079587245000162e+00 7.743368200369999954e+00 3.872625061484999964e+00 5.922873276418999744e+00 2.054305005260999906e+00 5.877404317486999652e+00 3.953884112311000010e+00 1.923839771129999932e+00 6.001894486732999745e+00 5.835967638419999659e+00 4.116672415580000077e+00 3.969605932966000061e+00 6.061305474074999644e+00 6.024619455414000235e+00 6.027143086060999799e+00 3.931765274526000109e+00 6.195244276840999653e+00
7.987577273501999642e+00 9.623704187699999579e-02 7.933105982432000047e+00 7.945272519920999699e+00 6.670261158099999310e-02 3.963096878130000000e+00 7.798088018038000335e+00 4.148245431857000121e+00 7.865647918208999556e+00 4.726428830400000031e-02 3.983199586055000019e+00 3.910300678393999974e+00 3.988705723200999920e+00 2.025876116829999907e-01 7.836445766625000253e+00 3.966713981813000167e+00 8.957797990599999927e-02 3.905086027801000004e+00 3.873946350020000207e+00 4.102937062214000008e+00 7.900928440846000100e+00 4.027779363556000192e+00 4.182552644830000332e+00 3.793019383198000138e+00 2.136786512426999796e+00 2.058815340607000000e+00 5.989891966497999931e+00 6.029745049558999703e+00 2.061637963281000019e+00 6.055730820098999878e+00 5.928179658693999876e+00 6.200293299364999733e+00 5.905800287819999994e+00 2.034776409158999932e+00 6.005583199903999692e+00 1.892153581529000039e+00 1.948551899853000036e+00 6.034152960242000319e+00 5.910051395567999855e+00 5.925310177803000400e+00 2.074029829759000076e+00 1.985248259428000095e+00 5.986023881497000154e+00 6.010810199932000053e+00 1.797409770725000078e+00 1.952955343566000090e+00 2.007105683757000048e+00 2.065929701117999784e+00 1.978926321496000007e+00 2.437751013440999870e+00 7.802578719925000073e+00 7.932885247917999649e+00 1.985959560951999991e+00 2.289876334306999883e+00 2.029920033907000043e+00 1.170158133000000038e-03 1.857205590801999984e+00 2.231464704948999955e+00 2.305270454468999919e+00 4.188734324654999952e+00 2.200981703299999953e-02 1.802276144129000057e+00 5.961602619459999808e+00 2.159712818690000091e+00 1.435356219320000071e-01 5.955116130433999899e+00 1.949829572390999965e+00 6.061687226763999625e+00 7.952759447530000081e+00 6.109744499999999860e-05 6.074221993134999664e+00 2.091274127828000040e+00 2.014945455124999896e+00 3.961895512929999974e+00 2.024915089623000153e+00 2.099339218206000002e+00 6.016904038991000014e+00 3.906014793300999877e+00 8.609817626000000612e-03 6.232772393188000137e+00 5.970403568295999719e+00 1.740121649029999995e+00 4.091338143634000168e+00 5.873610058445000170e+00 6.195782292015000081e+00 1.674209539810000091e+00 3.186784597600000185e-02 4.010678139778000251e+00 1.984762152330000085e+00 1.695179492200000082e+00 5.853889444598999958e+00 1.512197159700000015e-01 2.370990849022999836e+00 5.598819407705000195e+00 2.083102306664999848e+00 4.147895260671999651e+00 4.063381073087000139e+00 1.914382660835999950e+00 6.370849569922000022e+00 5.917435598956999776e+00 4.529466001000000130e-02 5.896236780140999834e+00 6.149452371050999844e+00 5.801950581936000439e+00 7.772289107599999802e+00 3.943421073954000100e+00 5.918772455563000356e+00 2.074519875431000138e+00 5.862113514982000062e+00 3.976113766756999901e+00 1.911488237828999903e+00 6.037902953870999845e+00 5.742679224147000383e+00 4.181783677752999751e+00 3.919534291564000128e+00 6.070254111878999659e+00 6.060819691382000052e+00 6.079380622680999657e+00 3.812968305041999795e+00 6.270934916778999835e+00
8.019682873030999914e+00 9.208689342499999653e-02 7.970250948878000230e+00 7.957221995880000343e+00 5.081690773699999719e-02 4.000075053065000219e+00 7.770480472647999903e+00 4.172498621522000128e+00 7.884123590138999660e+00 6.837221197699999697e-02 3.961035191657999999e+00 3.933246921974999921e+00 4.011274851929999663e+00 2.289728214279999896e-01 7.850515149087000211e+00 3.989662954431000053e+00 8.371847240900000264e-02 3.923870565471999861e+00 3.865510742007999934e+00 4.111613071766999639e+00 7.931949303769999737e+00 4.068885497382000338e+00 4.218876819944999745e+00 3.780168245311000152e+00 2.153321258866999877e+00 2.037658493883999888e+00 6.026667737508000222e+00 6.095134809664999764e+00 2.086326660808000000e+00 6.047338809066999943e+00 5.935511537310000030e+00 6.243064518789999795e+00 5.900800494469000235e+00 2.046712356937999910e+00 6.035635564642999995e+00 1.863361640409999964e+00 1.957113212646000022e+00 6.062686170537999963e+00 5.899932382026999989e+00 5.917158987085000099e+00 2.058021701992999830e+00 1.993807055051000088e+00 6.030484088379999719e+00 6.071067533032000085e+00 1.813871497951000000e+00 1.964131371749999966e+00 1.999798533037000059e+00 2.074278637736000075e+00 1.939129797357999951e+00 2.529413690849999785e+00 7.950171701640000421e+00 8.020740246385999583e+00 1.999004978209999894e+00 2.429817495686000139e+00 2.046303350176000180e+00 8.024112094917999372e+00 1.843566515939000006e+00 2.332406521707000024e+00 2.374790668210000177e+00 4.108432158730000339e+00 7.990222376542000404e+00 1.753782537533000063e+00 5.936366883697999697e+00 2.176419476941000131e+00 6.074130754499999785e-02 5.990290807549000007e+00 1.957618866495000054e+00 6.063432256829999645e+00 7.995553209694000074e+00 7.980925467708999577e+00 6.082993417877999853e+00 2.130807682962999827e+00 2.005050523811000129e+00 3.976059342186999856e+00 2.050824819594000203e+00 2.091627588180999808e+00 6.097668779105999803e+00 3.876179588274000221e+00 1.987656596999999928e-02 6.359147684634000264e+00 5.954694063106000357e+00 1.727594587972000051e+00 4.127421493169999955e+00 5.895703887952000066e+00 6.282848153985000295e+00 1.608919102213999919e+00 7.666397813299999364e-02 4.017282049820999568e+00 2.014606786114999881e+00 1.615033645560000064e+00 5.875155614925000158e+00 1.133389269219999967e-01 2.484270810489999981e+00 5.560243246417000407e+00 2.176290032993999812e+00 4.058472016897000323e+00 4.029862894489999903e+00 2.000050170468000044e+00 6.481841941316999645e+00 5.931857456279000296e+00 1.885032135899999961e-02 5.896656402322999924e+00 6.205351350792000176e+00 5.889184709860000311e+00 7.853997451390999807e+00 4.031919101016000262e+00 5.938343936712000115e+00 2.065000618996999826e+00 5.873497885284000297e+00 3.995340199570000195e+00 1.903816407651000020e+00 6.068862798666000202e+00 5.647746886915999909e+00 4.215377427048999870e+00 3.894091940971999843e+00 6.056155366909999671e+00 6.087191052431999871e+00 6.130600384244999645e+00 3.764021299709999990e+00 6.320195189559999704e+00
8.056098479982999550e+00 8.542759553800000072e-02 8.009770640703999689e+00 7.970496199015999927e+00 3.300893412400000143e-02 4.035740193608000403e+00 7.749773299433000417e+00 4.198972566628000003e+00 7.909964121786000391e+00 8.864182895399999595e-02 3.943001988804999858e+00 3.955496217298000161e+00 4.036004460308999953e+00 2.517169713310000168e-01 7.871770461648000428e+00 4.016505731390999756e+00 7.832133872900000349e-02 3.943150488610000171e+00 3.859602604806000148e+00 4.120523036850999965e+00 7.968513767460000174e+00 4.112888049160999593e+00 4.256560359676000438e+00 3.769824353489000135e+00 2.151410867899000046e+00 2.026296906133000064e+00 6.074683820903000075e+00 6.160904870122999810e+00 2.077144901826000201e+00 6.016154734688999639e+00 5.951439095692999892e+00 6.271085416255999689e+00 5.928371958827000299e+00 2.046298538335999950e+00 6.063293586071000441e+00 1.846321292115000068e+00 1.961839033064000093e+00 6.088590996705000258e+00 5.885023204596000035e+00 5.917154757775000107e+00 2.039534573209000001e+00 2.009844952693999875e+00 6.074290834559000096e+00 6.140433935228999829e+00 1.865958994447000086e+00 1.981062991141000040e+00 1.992164735788999996e+00 2.073205209436999930e+00 1.875402952361999942e+00 2.539272481115999902e+00 8.000433174973000661e+00 7.945812139501000182e+00 2.011799644884999960e+00 2.564752172028999855e+00 2.075463746123999975e+00 7.965339842327000319e+00 1.834848707536000045e+00 2.434810290964000146e+00 2.371179354467999989e+00 4.144755206003000403e+00 7.961251168569999592e+00 1.729115271024000089e+00 5.899059830767999557e+00 2.180050385887999820e+00 3.153232169999999751e-02 6.045610847223000128e+00 1.963301678180999987e+00 6.047580809537000057e+00 7.979090513547999919e+00 2.511641888000000142e-02 6.086987505217000383e+00 2.152499572423999918e+00 2.000062333794999869e+00 4.233695885090000388e+00 2.079957292640000066e+00 2.065308095294999813e+00 6.198938390897000161e+00 3.965973153299000131e+00 4.265944497400000340e-02 6.469020592546000259e+00 5.944102459193000065e+00 1.741324203041000107e+00 4.194471659958000309e+00 5.939396906394000197e+00 6.346039292354999972e+00 1.584181424584000020e+00 1.264497320609999920e-01 4.096387316617000174e+00 2.037900712612000120e+00 1.541484686973999985e+00 5.924694265057000031e+00 6.162766486799999693e-02 2.565967012303000061e+00 5.565907631526999744e+00 2.276713629080000079e+00 4.000978955008999804e+00 4.006632321244000039e+00 2.127531627701999994e+00 6.529964900067000144e+00 5.912357729654000416e+00 8.042426958043000340e+00 5.873378720620999971e+00 6.241607462298000009e+00 6.048466751435999988e+00 7.901634804046000049e+00 4.047143380269999646e+00 5.987207382857000049e+00 2.024806190935000139e+00 5.920401551559000275e+00 3.956919341696000014e+00 1.889284825385000088e+00 6.088839187638999562e+00 5.580060540384000234e+00 4.254912752303000367e+00 3.938254192080000049e+00 6.025449268708999995e+00 6.097678611346999844e+00 6.164579672784999964e+00 3.831810798740999946e+00 6.347026578500000404e+00
6.735038607999999788e-03 7.396672457700000092e-02 8.051063687658000845e+00 7.985501334023999753e+00 1.173116591599999980e-02 4.068708071371999857e+00 7.735317262080999789e+00 4.228920205314000036e+00 7.943449448133000246e+00 1.073073918539999977e-01 3.930405465895999928e+00 3.977060402570999909e+00 4.062621276379999813e+00 2.697301940590000058e-01 7.898345582601000281e+00 4.045851503247000380e+00 7.226291517499999761e-02 3.962790111272000093e+00 3.856109888045000211e+00 4.131520198349000417e+00 8.008929158887999833e+00 4.159623478858000212e+00 4.296728182545000330e+00 3.762201383800999999e+00 2.146548600381999794e+00 2.027703555342999842e+00 6.127078803147999686e+00 6.209534106415000032e+00 2.065780164252000173e+00 5.972871880310999693e+00 5.972606893716999821e+00 6.265846849644000294e+00 5.985785730563000229e+00 2.036829044660999788e+00 6.099666439408999885e+00 1.831510048995999895e+00 1.964696959157999911e+00 6.110884467583000301e+00 5.873138268654000349e+00 5.934971088754999791e+00 2.022037223249999904e+00 2.034002435071000203e+00 6.118070456897999776e+00 6.200380065909000038e+00 1.945307586718000081e+00 1.997148177644000100e+00 1.993347865358999993e+00 2.066683230213000044e+00 1.789011243018000075e+00 2.467193699451999844e+00 7.977258916128000088e+00 7.860361169445000407e+00 2.025722642009000207e+00 2.659727466806999896e+00 2.115371578503999928e+00 8.021043479133000531e+00 1.838673901243000008e+00 2.504877725671999844e+00 2.293163887479999996e+00 4.258273012520000123e+00 7.960087603207999685e+00 1.741488079258999955e+00 5.856996119227000364e+00 2.190373792774999995e+00 1.373069787800000052e-01 6.128675832316000438e+00 1.967572242162000107e+00 6.026224762492000231e+00 7.949245878315999825e+00 1.455045246249999924e-01 6.102471773187000181e+00 2.157533174797999997e+00 1.995187208936999967e+00 4.355950588365000264e+00 2.136947993036999893e+00 2.043918787856000119e+00 6.314868999959999840e+00 4.090960281884999716e+00 4.812307984900000141e-02 6.551961840626000289e+00 5.952352725511000031e+00 1.763533439586999929e+00 4.219399151665999881e+00 5.991073663223000167e+00 6.382417441654999912e+00 1.597291691764999966e+00 1.310159721120000009e-01 4.123263202932999860e+00 2.046140002716999806e+00 1.486217191464000109e+00 5.989849222074999702e+00 2.522494615500000051e-02 2.613598448124999862e+00 5.611030001198000328e+00 2.350102651915999985e+00 4.039332523974000111e+00 3.990224975099999849e+00 2.250435814050999905e+00 6.515492661464000079e+00 5.853259345774000089e+00 2.681908675799999850e-02 5.820909955858000195e+00 6.275888531498999612e+00 6.254900017070999851e+00 7.914774304468999766e+00 4.018468282637000399e+00 6.061858157938999625e+00 1.979371697789999995e+00 6.001444960277000362e+00 3.902773095150000149e+00 1.856415790910000085e+00 6.108167693558000266e+00 5.556311859999000013e+00 4.300076731070999969e+00 4.049433227420999870e+00 5.992771211416999755e+00 6.092870553557999891e+00 6.180605494904000352e+00 3.906579274992000084e+00 6.344145942872000177e+00
1.643049055200000025e-02 5.847569159899999869e-02 8.092637458805999273e+00 8.002082810921999467e+00 8.111236695310999778e+00 4.099150382817000171e+00 7.725652284563000016e+00 4.261264417723999998e+00 7.982642998304999793e+00 1.239275685820000056e-01 3.922737785330999927e+00 3.998836937294000027e+00 4.090920685040000393e+00 2.841529517579999831e-01 7.927335842927000442e+00 4.076501497579999800e+00 6.610158766399999719e-02 3.983680990978999858e+00 3.854835448737000014e+00 4.143959822760000300e+00 8.050456121387000508e+00 4.208492321471999809e+00 4.338306537990000322e+00 3.758101006057000149e+00 2.149587756350999967e+00 2.043374022442999927e+00 6.177235248545000168e+00 6.222417207438000197e+00 2.072773691166999832e+00 5.926773876564999988e+00 5.991742627938999810e+00 6.244538761207000022e+00 6.058719821999000388e+00 2.026145162488000029e+00 6.158413988266000061e+00 1.805538350453999907e+00 1.966248151717999937e+00 6.128455744030000041e+00 5.886950289352999910e+00 5.971671172653000070e+00 2.003466799093000184e+00 2.060170196677999943e+00 6.159977449094999891e+00 6.238766497736000005e+00 2.032652033933000091e+00 2.009443515200000085e+00 2.006675951670000124e+00 2.059505073294999988e+00 1.681166356956000030e+00 2.347708330036000213e+00 7.969319470527000071e+00 7.864590336254999592e+00 2.035885828550000110e+00 2.696884197359000090e+00 2.157115316036999797e+00 6.143668774799999899e-02 1.854145784354999993e+00 2.522900733674000140e+00 2.171226561925999832e+00 4.330121105114000279e+00 7.998691633175999627e+00 1.790295492650000098e+00 5.810262923299999827e+00 2.211762623170999920e+00 2.699803079370000081e-01 6.234802998986999967e+00 1.975373170284999924e+00 6.017940746348999781e+00 7.981449071429000064e+00 1.942415284690000021e-01 6.145377485463000333e+00 2.156113871740000132e+00 1.997399910963000069e+00 4.194864048790999611e+00 2.238703598961000019e+00 2.048589019513999965e+00 6.441074630682000368e+00 4.095918199208999688e+00 4.904858247200000188e-02 6.602704148642000170e+00 5.984589729942999980e+00 1.782298952225999988e+00 4.234998787098000150e+00 6.025379829169000168e+00 6.399081168848000267e+00 1.639315318861999993e+00 1.067189993479999988e-01 4.071640079506999577e+00 2.046066888397000127e+00 1.471771948828000109e+00 6.056212988118000240e+00 2.385964352899999988e-02 2.627186550210999894e+00 5.678402978568000137e+00 2.379747588724999918e+00 4.151881189311000142e+00 3.993631921337999824e+00 2.339348946217000069e+00 6.481503950190999674e+00 5.775468992596000106e+00 1.102134483120000008e-01 5.748629358021999813e+00 6.321698441941999924e+00 6.469026856991000329e+00 7.940051508024000171e+00 4.003697746261000390e+00 6.147130555474999980e+00 1.953810190690000059e+00 6.100246127788000017e+00 3.896845184851999822e+00 1.806141187539000104e+00 6.145237316624999835e+00 5.580205253423000222e+00 4.318141031710999833e+00 4.157574926654000080e+00 5.972095292599999716e+00 6.077175704882000318e+00 6.199368490303999835e+00 3.944834352465000027e+00 6.333064700651999779e+00
2.634622507799999971e-02 4.259969067299999856e-02 8.130942785112999616e+00 8.017805502411000873e+00 8.119447882947000039e+00 4.126782623237000180e+00 7.717189081915999616e+00 4.291897164089999883e+00 8.023504808965000734e+00 1.392067158899999990e-01 3.916881459244000219e+00 4.019449380432000396e+00 4.119874079010999779e+00 2.971900548909999773e-01 7.954912024146000071e+00 4.105189871089000242e+00 6.108525062200000078e-02 4.005110580216999949e+00 3.854890406081000087e+00 4.153628120948999580e+00 8.089644043019999842e+00 4.256602498098000176e+00 4.378135637571999972e+00 3.756483113179999833e+00 2.159135609665999933e+00 2.081714542119999845e+00 6.212172508429000040e+00 6.203030272144999913e+00 2.094159399851999837e+00 5.891401497116000030e+00 6.005613277263999628e+00 6.221822657657999578e+00 6.124074521368999768e+00 2.021171369864999789e+00 6.220739972488999570e+00 1.777746013273000081e+00 1.963505858885999933e+00 6.140833364417000340e+00 5.919888222712000214e+00 6.020441947898000024e+00 1.984823269135000068e+00 2.076503346911000136e+00 6.194802161023000409e+00 6.250953399194999704e+00 2.114362017802999816e+00 2.014814925890000108e+00 2.039038664776000154e+00 2.054659531327999833e+00 1.555173404767999923e+00 2.229374419926000161e+00 8.019846767726999559e+00 7.932142871553000241e+00 2.031401323808999848e+00 2.674340155606000025e+00 2.183721893702999850e+00 6.116179977999999795e-02 1.856222513324000012e+00 2.492375767655000018e+00 2.036339598881999891e+00 4.308248439603000080e+00 8.052037083392999506e+00 1.864198577885999963e+00 5.756310654720000031e+00 2.240967854652999858e+00 2.559651544089999731e-01 6.351740890382999716e+00 1.988641035969000104e+00 6.033377293964999666e+00 8.075504825519999486e+00 1.548839584410000025e-01 6.207747993429999944e+00 2.145080458633000120e+00 2.010498944431999835e+00 4.032053892180000432e+00 2.335274053336000133e+00 2.078720688910999925e+00 6.551266825336999666e+00 4.028021897904999982e+00 8.700552598300000107e-02 6.610707618719000145e+00 6.037943164472999946e+00 1.803251022968000106e+00 4.306278699625999629e+00 6.028815836623000024e+00 6.399560177836000285e+00 1.694984751842999904e+00 1.128385752300000017e-01 4.055656613720000081e+00 2.050879453394999885e+00 1.514978235010999930e+00 6.108977014359999735e+00 7.112373399599999924e-02 2.598759356631000106e+00 5.743715562638000094e+00 2.380206870124999874e+00 4.224631942447000021e+00 4.023200326026000084e+00 2.396627960390000034e+00 6.476495158198999569e+00 5.712785199334000197e+00 1.611884833720000076e-01 5.687340147179999583e+00 6.367832452055999681e+00 6.649105697685000038e+00 7.990021409980999856e+00 4.001695294359000066e+00 6.216271721780000092e+00 1.954970752561999925e+00 6.188032318122999698e+00 3.941580734588999935e+00 1.756773742912000058e+00 6.206224348524999712e+00 5.663281410094000101e+00 4.295155938286000286e+00 4.187187982929000185e+00 5.967605970674999760e+00 6.063382479277000137e+00 6.234049963266000027e+00 3.987452777370000145e+00 6.349545678280000160e+00
3.641761032600000086e-02 2.908310382600000008e-02 8.163835570413999321e+00 8.030960285674000332e+00 8.124667439262999835e+00 4.150670739738999693e+00 7.707328022399000389e+00 4.317802295734000317e+00 8.064512101750999307e+00 1.535393735199999943e-01 3.910302597040999917e+00 4.036319878089000390e+00 4.148527982663999580e+00 3.092760129980000050e-01 7.979056715950999745e+00 4.127809573861999759e+00 5.699346553500000273e-02 4.024708994914999671e+00 3.856192484999000136e+00 4.158412817470999556e+00 8.125349216516999817e+00 4.301540416094000285e+00 4.415065993003000067e+00 3.754945397044000099e+00 2.170232696619999846e+00 2.115464087496000012e+00 6.223234008177000121e+00 6.175028097724999832e+00 2.118941422842000044e+00 5.887023365670000175e+00 6.010308855473000200e+00 6.195509955072999730e+00 6.168351677696000124e+00 2.019550571044999909e+00 6.284372794101000359e+00 1.768355470671999941e+00 1.959585698414000099e+00 6.163878370936999751e+00 5.948313008368000254e+00 6.078862316178000214e+00 1.971114137147000012e+00 2.071811757986000035e+00 6.222144695548999849e+00 6.241836178860999951e+00 2.183426187793000128e+00 2.011593131969999781e+00 2.076118169468000207e+00 2.051172964238999974e+00 1.443346431296000043e+00 2.147934897009000199e+00 8.075739110193000059e+00 8.012032203197000158e+00 2.010670797332000159e+00 2.607368934714000108e+00 2.181077617859000117e+00 8.098842289559000207e+00 1.825495882081999977e+00 2.420305235959999912e+00 1.902588652184999951e+00 4.264178126504000410e+00 8.075522842393999312e+00 1.953513054490999989e+00 5.703676501270000365e+00 2.278475752510999985e+00 1.292375562139999878e-01 6.460682858765999903e+00 2.006539144766000149e+00 6.053859997916999802e+00 8.131096040318999130e+00 9.009751396899999543e-02 6.271456262557999928e+00 2.112758868024999792e+00 2.028989002148999798e+00 4.043990511301999824e+00 2.411655984569000211e+00 2.115872057517000027e+00 6.601843825119000364e+00 4.037745523966999706e+00 1.507583633669999923e-01 6.574090950686000134e+00 6.105212556322999973e+00 1.836015627040999965e+00 4.365578530258999557e+00 6.013331486750000288e+00 6.391761856147000209e+00 1.748010991601000041e+00 1.681828416520000091e-01 4.132333686112000137e+00 2.065254716505999788e+00 1.604839112509000021e+00 6.138322122623000254e+00 1.456081672139999950e-01 2.531010744916999844e+00 5.781648896696999884e+00 2.384836094265999851e+00 4.163728247858999865e+00 4.042415287728999829e+00 2.426670243221999979e+00 6.507479647431000380e+00 5.699901601436000220e+00 1.635153433119999888e-01 5.678357932628999905e+00 6.382701302085999728e+00 6.756243557200000360e+00 8.018400191941999822e+00 4.009467254182999874e+00 6.236958984017999974e+00 1.979578944920999950e+00 6.241701779381999771e+00 4.014955885811000158e+00 1.730009716794000063e+00 6.274765442011999816e+00 5.810373560522999803e+00 4.260249986354000207e+00 4.147776606250999976e+00 5.978224627232999744e+00 6.068169232373000099e+00 6.268440769729999751e+00 4.073468577253000156e+00 6.395427052572999926e+00