-3.498682774290000089e+04
-3.498691812059999938e+04
-3.498604292069999792e+04
-3.498639061270000093e+04
-3.498567381539999769e+04
-3.498629245100000117e+04
-3.498614682699999685e+04
-3.498607281759999751e+04
-3.498537798109999858e+04
-3.498520531620000111e+04
-3.498548047119999683e+04
-3.498588033680000080e+04
-3.498455953540000337e+04
-3.498444795290000184e+04
-3.498462920399999712e+04
-3.498439513489999808e+04
-3.498384120200000325e+04
-3.498470370479999838e+04
-3.498358651909999753e+04
-3.498386348239999643e+04
-3.498300700979999965e+04
-3.498377204999999958e+04
-3.498260027339999942e+04
-3.498324382699999842e+04
-3.498327153589999944e+04
-3.498216591370000242e+04
-3.498410130819999904e+04
-3.498291621290000330e+04
-3.498383679010000196e+04
-3.498388284179999755e+04
-3.498390748509999685e+04
-3.498435747219999757e+04
-3.498454592460000276e+04
-3.498362580380000145e+04
-3.498320642039999802e+04
-3.498428658490000089e+04
-3.498495612509999773e+04
-3.498487234280000121e+04
-3.498525214489999780e+04
-3.498514685179999651e+04
-3.498499429560000135e+04
-3.498550477120000141e+04
-3.498604898770000000e+04
-3.498601173739999649e+04
-3.498584863939999923e+04
-3.498678062640000280e+04
-3.498615568360000179e+04
-3.498664673259999836e+04
-3.498637289079999755e+04
-3.498684991689999879e+04
-3.498689901490000193e+04
-3.498665187349999906e+04
-3.498583936220000032e+04
-3.498652894209999795e+04
-3.498615755019999779e+04
-3.498663825760000327e+04
-3.498661430999999720e+04
-3.498634371359999932e+04
-3.498648859780000203e+04
-3.498623688050000055e+04
-3.498630659600000217e+04
-3.498625656860000163e+04
-3.498546167689999857e+04
-3.498548060689999693e+04
-3.498592826079999941e+04
-3.498528703379999934e+04
-3.498515256080000108e+04
-3.498443323049999890e+04
-3.498395053480000206e+04
-3.498417305990000023e+04
-3.498465522300000157e+04
-3.498430401810000330e+04
-3.498273501650000253e+04
-3.498236200419999659e+04
-3.498263644999999815e+04
-3.498193063390000316e+04
-3.498217841049999697e+04
-3.498330908320000162e+04
-3.498354586810000183e+04
-3.498269659069999761e+04
-3.498317238740000175e+04
-3.498264111759999651e+04
-3.498276446250000299e+04
-3.498270077519999904e+04
-3.498423484150000149e+04
-3.498418670689999999e+04
-3.498448819319999893e+04
-3.498452522740000131e+04
-3.498428681849999703e+04
-3.498469783599999937e+04
-3.498473490930000116e+04
-3.498571636340000259e+04
-3.498569684160000179e+04
-3.498582944609999686e+04
-3.498575025399999868e+04
-3.498584997789999761e+04
-3.498570421029999852e+04
-3.498656355250000342e+04
-3.498681432450000284e+04
-3.498648565219999728e+04
-3.498649813100000028e+04
-3.498672580369999923e+04
-3.498672954200000095e+04
-3.498705037370000355e+04
-3.498684390819999680e+04
-3.498626684160000150e+04
-3.498682574749999912e+04
-3.498747280250000040e+04
-3.498704428059999918e+04
-3.498651137749999907e+04
-3.498569713269999920e+04
-3.498652585630000249e+04
-3.498666160870000022e+04
-3.498669636470000114e+04
-3.498654134319999866e+04
-3.498590737429999717e+04
-3.498525200349999795e+04
-3.498566797940000106e+04
-3.498577846860000136e+04
-3.498564128280000295e+04
-3.498512544460000208e+04
-3.498500063609999779e+04
-3.498517827789999865e+04
-3.498478645549999783e+04
-3.498391241630000150e+04
-3.498285147370000050e+04
-3.498379685030000110e+04
-3.498410448239999823e+04
-3.498415743079999811e+04
-3.498349724240000069e+04
-3.498278355100000044e+04
-3.498265291640000214e+04
-3.498301714240000001e+04
-3.498343645410000317e+04
-3.498257339779999893e+04
-3.498357857800000056e+04
-3.498314938429999893e+04
-3.498265680250000150e+04
-3.498413322319999861e+04
-3.498392972659999941e+04
-3.498396521170000051e+04
-3.498431378560000303e+04
-3.498460078300000168e+04
-3.498475721909999993e+04
-3.498517762560000119e+04
-3.498513508159999765e+04
-3.498597970340000029e+04
-3.498588261230000353e+04
-3.498476120829999854e+04
-3.498567382850000286e+04
-3.498602816629999870e+04
-3.498636978249999811e+04
-3.498639826840000023e+04
-3.498596701120000216e+04
-3.498583354379999946e+04
-3.498624764929999947e+04
-3.498657881959999941e+04
-3.498657117200000357e+04
-3.498647834750000038e+04
-3.498644350329999725e+04
-3.498605640169999970e+04
-3.498566665900000226e+04
-3.498595309689999704e+04
-3.498619576699999743e+04
-3.498630070430000342e+04
-3.498578526710000006e+04
-3.498607469799999672e+04
-3.498581186129999696e+04
-3.498570254749999731e+04
-3.498599056859999837e+04
-3.498526206320000347e+04
-3.498541273199999705e+04
-3.498519670339999720e+04
-3.498467755839999882e+04
-3.498441966400000092e+04
-3.498514670499999920e+04
-3.498427407590000075e+04
-3.498406940249999752e+04
-3.498413399789999676e+04
-3.498392655840000225e+04
-3.498307985449999978e+04
-3.498343577080000250e+04
-3.498334330279999995e+04
-3.498339786730000196e+04
-3.498318730930000311e+04
-3.498348068860000058e+04
-3.498407553740000003e+04
-3.498414916449999873e+04
-3.498388997750000271e+04
-3.498362452540000231e+04
-3.498441209959999833e+04
-3.498433546029999707e+04
-3.498452534480000031e+04
-3.498406549320000340e+04
-3.498512704710000253e+04
-3.498557575950000319e+04
-3.498565875409999717e+04
-3.498486901840000064e+04
-3.498502957839999726e+04
-3.498550785460000043e+04
-3.498586432290000084e+04
-3.498543015359999845e+04
-3.498530637959999876e+04
-3.498529858609999792e+04
-3.498545802079999703e+04
-3.498594715639999777e+04
-3.498609530760000052e+04
-3.498635141580000345e+04
-3.498651154099999985e+04
-3.498619889700000203e+04
-3.498566354169999977e+04
-3.498614780730000348e+04
-3.498613405670000066e+04
-3.498607038569999713e+04
-3.498566084050000063e+04
-3.498567800559999887e+04
-3.498545551739999792e+04
-3.498625810820000333e+04
-3.498520530319999671e+04
-3.498518267480000213e+04
-3.498492424089999986e+04
-3.498453587279999920e+04
-3.498471408779999911e+04
-3.498506544130000111e+04
-3.498489048010000261e+04
-3.498520215589999862e+04
-3.498412865730000340e+04
-3.498423411710000073e+04
-3.498398001530000329e+04
-3.498351135519999661e+04
-3.498265225210000062e+04
-3.498275562540000101e+04
-3.498442079560000275e+04
-3.498315959309999744e+04
-3.498306347079999978e+04
-3.498447324790000130e+04
-3.498456135699999868e+04
-3.498446872810000059e+04
