-7.396374918429999834e-01 1.089129277149999964e-01 5.083097239310000459e-01 -8.959164955909999506e-01 -1.783680458399999891e-02 -3.296171680719999775e-01 -8.689203207229999615e-01 -3.372771580000000213e-02 4.473515179629999894e-01 -8.761751235179999764e-01 7.822169985299999573e-02 -2.248810217309999970e-01 5.734904715309999679e-01 -3.751331240200000278e-02 5.538007032599999713e-01 7.491323856760000455e-01 -1.849378105009999995e-01 -3.391287121650000125e-01 7.255259936700000356e-01 1.072769609330000012e-01 5.495347793260000335e-01 7.354469037080000327e-01 2.577315367449999894e-01 -3.329840768769999904e-01 -3.152787748649999999e-01 1.260402996420000032e-01 -2.763454846369999829e-01 -4.822716161999999682e-03 5.166586037160000311e-01 -4.867440944620000098e-01 -4.187710012899999862e-02 -3.030874511200000107e-02 -4.088210981250000042e-01 7.771084802200000086e-01 -1.865583013140000024e-01 -2.833195058419999968e-01 2.879217772789999796e-01 2.259615238590000075e-01 -2.914546833309999974e-01 2.672477794440000221e-01 -6.163418223900000159e-01 -3.185094397600000266e-02 5.099771670970000281e-01 -1.714438371679999906e-01 5.961766464099999691e-02 7.583923187859999970e-01 -6.108780682150000141e-01 -6.854815053989999907e-01 1.054314050680000003e-01 -2.410043478239999870e-01 -4.040552434097000045e+00 -3.575178798051999784e+00 -1.711945384770000023e-01 2.151500689189999871e-01 4.337606907600000117e-02 -2.377786291296000165e+00 1.300083335580000110e-01 1.628478668270000040e-01 -2.000226787559999941e-01 4.335022123209999911e+00 6.923480475200000095e-02 -8.537131146800000514e-02 1.175445731469999949e-01 -6.602031046000000208e-03 -1.216146305330000066e-01 1.144566810070000024e-01 5.953188378000000107e-03 -2.919339433099999923e-02 -4.399755120739999859e-01 1.034332721191999926e+00 -1.559635481209999952e-01 1.545336721460000007e-01 6.029359723100000124e-02 3.827594502739999793e+00 1.413961405349999922e-01 -5.911747658899999674e-02 4.520536635999999886e-02 7.131535303000000048e-02 4.600126212060000053e-01 -1.170664190000000014e-02 7.057933152999999737e-02 1.389587968250000083e-01 -9.163739832000000751e-03 1.240510834289999947e-01 5.545505148899999848e-02 -6.558601828000000522e-02 -9.891432690150000484e-01 2.385833827852999800e+00 -1.065745728370000034e-01 1.103697819830000010e-01 1.305948326570000040e-01 2.291345514750999790e+00 1.948016954610000129e-01 1.037352415109999981e-01 7.382347749000000084e-03 3.713715999989999905e-01 -1.310919726279999864e-01 8.304012819999999915e-04 1.677991925950000074e-01 1.470466132159999884e-01 6.061409016590000309e-01 2.416249769409999915e-01 1.923228881190000017e-01 -1.212526313130000005e-01 -2.244202888539000185e+00 -2.433044464968999954e+00 -1.777951321790000039e-01 1.487432845480000099e-01 1.140691136210000012e-01 -1.229356633791000020e+00 1.794046883379999957e-01 1.773437960729999929e-01 -2.717353662020000060e-01 2.130263338599999834e+00 -9.353825361099999958e-01 -1.329127745249999992e-01 1.221801684669999999e-01 1.119595897209999941e-01 -8.015219178539999545e-01 1.452719217760000125e-01
-3.675353151199999835e-01 -6.985253881399999809e-02 -6.531224770799999579e-02 -1.028499054269000013e+00 -3.675887567059999972e-01 4.265738007999999790e-03 -8.917373072299999981e-01 1.902257843200000076e-01 -3.061439090790000206e-01 -1.082521307965000013e+00 5.282710401329999694e-01 4.330844780170000075e-01 2.409951968709999892e-01 -2.860279104039999964e-01 4.057537211089999873e-01 1.004631945317999930e+00 -3.492911600410000261e-01 -2.202104393600000098e-01 9.680699855300000101e-01 3.044138357210000034e-01 1.116975922080000044e-01 1.125843951525999920e+00 5.027771346470000235e-01 1.105695462739999940e-01 -9.877763194590000184e-01 -7.430824161729999711e-01 -2.439333665179999888e-01 6.773671080140000189e-01 1.298382246297000053e+00 -8.805498259799999783e-01 -1.617089073890000117e-01 -1.149333644516000064e+00 -9.734779325410000128e-01 1.164541839893999953e+00 2.382063313594999787e+00 -5.308503563900000000e-01 6.133778884720000324e-01 1.723055315947999988e+00 5.367760038829999525e-01 -1.682190048775999980e+00 -1.321994335315000102e+00 4.493181544800000093e-01 3.254617195300000265e-01 7.078605575859999721e-01 7.768657287560000180e-01 -1.565327887019999920e-01 3.761583790119999993e-01 -1.597388695171999995e+00 -8.736257457299999307e-02 -1.495812912020000052e-01 1.230684164359999999e-01 2.257811386685999899e+00 8.118809482800000421e-02 4.303810121189999838e-01 -7.032534719100000387e-02 1.095390958797999970e+00 1.906550181830000135e-01 7.684012547500000678e-02 9.770917609800000569e-02 1.435010704423999917e+00 -1.383756401490000010e-01 7.148604068599999362e-02 -5.997617819500000030e-02 -1.428205833860000107e-01 7.714713762500000072e-02 2.233154909500000007e-01 1.980065334499999941e-01 -7.985609338099999843e-02 1.384113575365000015e+00 -2.220301882904999857e+00 -1.807776117300000096e-01 2.360694392790000096e-01 -1.890765003579999992e-01 -3.752624502786999994e+00 1.315810483419999899e-01 -1.343305440210000035e-01 4.260971633180000162e-01 -2.515426541711000219e+00 -4.496362133069999878e-01 3.989437666990000020e-01 -7.488368735799999509e-02 5.322173087910000433e-01 -2.485811488753999932e+00 3.255517541210000143e-01 1.791492546260000096e-01 9.654860399999999675e-05 -8.573632924180000225e-01 7.982942646099999706e-02 2.444937466819999961e-01 1.127213974040000011e-01 3.086371792059999786e-01 6.844338596869999902e-01 7.941203186199999320e-02 5.023505390369999990e-01 3.189244930119999877e-01 -1.236119931351999934e+00 -1.406123256529000054e+00 5.490909537799999462e-01 2.247119414189999997e-01 5.300257070399999604e-01 1.127610520536999950e+00 5.198480174409999544e-01 3.176774277319999729e-01 5.975673963159999769e-01 3.836417282230000225e-01 1.559687899820000057e-01 -2.814189469700000001e-02 -1.363529043300000000e-02 2.200124557300000006e-01 -4.577353345949999874e-01 2.065944470159999935e-01 2.874655167599999839e-01 -4.139467899839999743e-01 7.214575127869999882e-01 -8.426634408609999793e-01 -3.596596611180000180e-01 1.499762849010000121e-01 2.732357460620000178e-01 -1.588082033707999940e+00 -1.311690887920000104e-01
-1.548477128930000057e-01 6.343859781000000218e-03 -4.832551592389999762e-01 -9.355497401250000289e-01 -3.853385952019999783e-01 1.776322316950000035e-01 -4.396165822370000087e-01 -1.442122092000000001e-02 -4.599301090899999833e-01 -8.500194891250000273e-01 6.473923884500000225e-01 5.596948357369999627e-01 8.877991440499999332e-02 -2.609664472089999743e-01 1.831231197650000087e-01 9.901516809999999502e-01 -9.823403314900000516e-02 6.298370858000000572e-02 8.404203691189999770e-01 -4.933466137800000123e-02 -1.754135141829999966e-01 9.874774368009999748e-01 2.418917236800000037e-01 4.596083435330000078e-01 -1.037191069054999915e+00 -1.224670808066999905e+00 2.318320765720000010e-01 7.711425152619999501e-01 1.266240430375999981e+00 -9.619741240260000215e-01 -2.227949757079999982e-01 -8.014700172469999551e-01 -5.894467794359999901e-01 -1.033125934846000016e+00 2.290658926484999913e+00 -6.725142736989999648e-01 4.926094740609999745e-01 1.238716066877999955e+00 1.770992549429999952e-01 -1.681713557871999942e+00 -1.745834116676999948e+00 8.957054737700000102e-02 2.188727075430000057e-01 8.389106211560000137e-01 9.571705634710000465e-01 1.718095984209999927e-01 4.889575085949999789e-01 -9.856337271939999978e-01 -3.304172501500000081e-01 -4.854314144699999750e-02 3.950621115271999884e+00 3.746842780525999839e+00 1.394485387009999910e-01 5.294012321469999671e-01 -7.626993863900000115e-02 1.839498772942000038e+00 2.676962967179999930e-01 1.238378163209999938e-01 8.274575181099999566e-02 -3.636869182254999888e+00 -8.502154324859999557e-01 6.968181524999999578e-03 -2.651395853169999928e-01 -2.878807786240000222e-01 -1.414028750161999914e+00 2.825105452460000000e-01 2.229024798939999996e-01 -2.687259367820000189e-01 8.680565795829999765e-01 -1.816455785213000107e+00 -2.716163245209999855e-01 1.996465199530000068e-01 -3.774577240209999740e-01 -3.878075356182999922e+00 1.579653467569999969e-01 -3.103513488940000120e-01 5.475658332349999657e-01 -1.026216033087000046e+00 -2.466728978870000033e-01 5.197411844689999727e-01 -2.633922015849999854e-01 4.967348512090000168e-01 -7.229316030410000149e-01 3.541398491230000056e-01 2.406265013289999866e-01 1.223109353900000001e-01 2.327394374129999888e-01 -1.794680386210999901e+00 3.534535844169999774e-01 9.159015731200000066e-02 3.446758785929999735e-01 -1.251989311044999997e+00 7.643465854500000600e-02 5.496367781269999586e-01 5.761631023319999656e-01 -1.788691266062000018e+00 -8.599161434590000264e-01 8.348429066239999585e-01 9.839349456399999749e-02 4.379650343670000168e-01 -4.004364528900000025e-02 3.094540302600000126e-01 9.140336427100000105e-02 1.033500978131999926e+00 2.177305359402000207e+00 2.371528915547000071e+00 2.053429149759999905e-01 -1.626364457610000036e-01 1.903694256750000091e-01 1.020155802926999922e+00 1.357966407539999976e-01 8.960736429599999719e-02 -4.283950601839999761e-01 -6.431698358409999594e-01 -3.499970089630000114e-01 -4.653969423470000200e-01 -7.580883140000000157e-04 1.877788696409999902e-01 -9.308340420280000194e-01 -5.154256196319999539e-01
1.113575030400000034e-02 -1.438723708000000032e-02 -3.971102379079999856e-01 -6.789215982149999773e-01 -1.786069233729999928e-01 -1.947219213120000014e-01 3.848764818659999865e-01 -2.163809516769999997e-01 2.040190806409999946e-01 -3.670958121239999983e-01 4.120077612720000060e-01 -6.955890298099999536e-02 5.970172105499999687e-02 -3.832759240160000247e-01 5.463653645229999967e-01 7.474992683969999829e-01 2.376190717199999913e-01 -3.002012238400000171e-02 3.801286898390000002e-01 -5.233000321259999588e-01 1.810829865169999997e-01 4.674003761419999736e-01 -2.401729220219999961e-01 3.515311701839999858e-01 -1.275799532446999951e+00 -4.730099222129999781e-01 9.984551693769999625e-01 4.141772283849999847e-01 -5.121731045809999605e-01 -1.282618345801000093e+00 5.127351371999999685e-02 -9.619704139099999329e-02 1.009428006053999960e+00 -1.747857572200999909e+00 -1.896727161999999965e-03 3.390805091210000177e-01 -1.556364775229999997e-01 -4.790588550000000195e-02 -4.927232532360000250e-01 9.387940937199999725e-02 -1.249400251001000051e+00 2.369273037590000075e-01 1.202227324940000064e-01 5.697346402559999579e-01 8.760467860130000117e-01 5.370264577469999745e-01 -4.983494435990000193e-01 -1.075845500593999970e+00 -4.056824293540000070e-01 -7.218601503779999984e-01 7.972134376920000376e-01 -1.733957302224000019e+00 8.626939810000000541e-02 1.827574356049999904e-01 8.149014678700000625e-02 -1.668617136491999942e+00 1.719470402540000109e-01 2.462803008670000071e-01 -5.828179022099999607e-01 -1.157829170077999903e+00 -5.590065057859999742e-01 7.348439481200000345e-02 -3.427857671439999976e-01 -4.310713028229999910e-01 -1.416016624153999981e+00 2.246154687130000049e-01 7.125999198900000164e-02 -3.933672757460000002e-01 -5.077325294679999601e-01 1.186990208040000105e+00 -2.986704331439999915e-01 -1.509774606850000089e-01 -2.345495996800000052e-02 4.195548313786000350e+00 3.175315634700000278e-02 -5.054686251309999934e-01 4.300903887640000200e-01 1.443606665277999968e+00 4.894132417559999837e-01 9.219797960900000255e-02 -2.367467927090000090e-01 5.066215107789999728e-01 1.491235473169000070e+00 3.573320879069999956e-01 -8.144743030100000392e-02 4.294760895349999941e-01 8.994293158389999876e-01 8.719716278160000167e-01 1.708124711500000059e-01 5.652250104300000216e-02 4.557300418790000140e-01 -1.057380783870000007e+00 -2.267285011609999901e-01 5.794297421630000278e-01 5.415831076810000422e-01 -9.291788268470000389e-01 4.454575875800000084e-02 1.028280459190999974e+00 -5.207195972379999871e-01 -1.053145420040000058e-01 -1.238122905393999940e+00 -1.639671660579999912e-01 -3.619122090360000210e-01 1.275258006062000016e+00 7.853226834690000269e-01 1.798602293740000080e-01 3.191265962440000270e-01 -5.554812880789999907e-01 3.739593687680000111e-01 -1.207024303439999946e-01 6.748407341100000345e-02 -1.707534237270000033e-01 -1.151688703109999962e-01 -6.390290006550000124e-01 3.430685290009999888e-01 -4.634464186260000007e-01 -2.554917654569999752e-01 -9.456260443500000279e-02 1.158503145057999895e+00 -5.316540919540000409e-01
1.929265259590000059e-01 -5.359967919070000031e-01 -2.161168608300000071e-01 -4.207214006019999730e-01 -3.752854256629999941e-01 -6.989389958439999884e-01 8.883432035980000085e-01 7.235208436999999992e-02 9.137705875920000276e-01 -1.799456141690000122e-01 5.437354324569999564e-01 -5.728021685299999888e-01 8.721819891399999747e-02 -8.541168551340000414e-01 8.992423133720000017e-01 4.525162048340000132e-01 1.156666202139999960e-01 -2.850160306830000212e-01 1.951956164289999907e-01 -3.522121014430000252e-01 5.102974950890000194e-01 1.820379869329999956e-01 -1.504081802420000058e-01 2.036147638119999992e-01 -1.011542480032000091e+00 5.280033348579999952e-01 3.884658885630000169e-01 -9.869118615899999392e-02 -2.096263949158000184e+00 -1.313394777742999953e+00 3.439410456540000216e-01 -8.071915824419999552e-01 1.538935617181000026e+00 -1.239468343738999945e+00 -5.627196635579999606e-01 1.232172310101000035e+00 -5.084500242820000349e-01 -5.390715849110000457e-01 -7.409019017200000334e-01 4.680795668430000056e-01 -2.545160875019999991e-01 6.625121536479999795e-01 -1.179874648040000057e-01 1.657812394710000137e-01 8.908878792919999734e-01 6.956885544109999708e-01 -1.958860564650000136e-01 -1.309457698070999987e+00 -4.025754411720000037e-01 -1.432687513727000095e+00 -1.969315650503999926e+00 -3.145239647099999925e+00 -3.050363884299999925e-02 -6.454561208600000100e-02 2.109508371059999887e-01 -1.704523724433999909e+00 4.186709730700000076e-02 3.105586507300000035e-02 -1.287418355218999944e+00 2.307595950060000067e+00 8.389988232999999462e-02 3.933039004019999729e-01 -2.426594813719999966e-01 -2.524190967409999931e-01 9.432578999770000472e-01 2.771260719359999736e-01 -6.300365387999999622e-02 -3.461427041069999877e-01 -1.175094021984999904e+00 2.213093717038999930e+00 -1.277099116930000000e-01 -3.271310808780000245e-01 8.356222712499999927e-02 4.579376151213000234e+00 1.042292314699999958e-02 -3.401950438710000246e-01 2.808186433379999958e-01 2.117620751959000014e+00 2.159385204869999908e-01 -3.552235727820000077e-01 5.327423604200000329e-02 4.495642080159999998e-01 5.194953447090000509e-01 3.290185366849999737e-01 -4.773943150480000064e-01 7.056493081379999754e-01 8.611959048799999739e-02 1.447862265671000070e+00 -1.374744377490000058e-01 1.051591928419999961e-01 4.415709160410000167e-01 -1.816850273130000137e-01 -5.898127208929999643e-01 7.184169774330000369e-01 1.137489345809999941e-01 5.254587915809999510e-01 1.643229757790000134e-01 7.131507688389999711e-01 -1.143076938049000013e+00 -6.397768808660000417e-01 -2.020346238580000009e-01 -4.496887752639999736e-01 -4.059973024649999873e-01 1.169772558498999970e+00 -7.662798910179999812e-01 -1.432651330264999912e+00 4.590045002790000273e-01 -5.639729230300000173e-01 5.625816402969999741e-01 -1.146451151599999996e+00 -1.239427030259999951e-01 -2.476077091190000135e-01 4.460294691330000116e-01 1.426659576290000009e-01 1.203879448316000023e+00 -3.231802222890000076e-01 -3.114613879120000095e-01 -3.489794499760000002e-01 2.249556971564000030e+00 -3.726184888890000102e-01
2.839085228039999742e-01 -1.078905114354000050e+00 -2.106065427920000011e-01 -1.629706866669999865e-01 -7.558624165509999493e-01 -9.469966713709999651e-01 8.889069895950000300e-01 4.606901250279999971e-01 1.107645792066999979e+00 -4.012192212790000045e-01 9.905855597479999997e-01 -4.684392243050000126e-01 8.700188042100000241e-02 -1.121411994285999914e+00 5.952252644579999474e-01 2.074993709869999980e-01 -1.761005022980000057e-01 -2.411495969780000082e-01 2.869252529860000234e-01 2.147794985869999895e-01 2.459029291710000120e-01 2.289901827749999952e-01 2.261484727870000100e-01 3.476734766260000109e-01 -1.527701861230000013e-01 6.221844338309999722e-01 9.936133426899999843e-02 -9.475973710530000149e-01 3.969443600000000113e-04 -6.443559510890000119e-01 1.817360212069999981e-01 -1.987386609369000023e+00 1.415670729729000099e+00 -9.833372497560000092e-01 3.718505472070000040e-01 2.640528593040000205e-01 -2.198084628170000054e-01 -5.531397445500000343e-01 -8.599792546399999404e-02 1.639398019681000074e+00 1.156494246499999989e-01 7.615817441259999931e-01 -4.395589560399999762e-02 -3.193265114839999863e-01 6.870102318180000278e-01 -2.696946534699999898e-01 1.090347751434000090e+00 -7.061400211539999860e-01 -3.643132317130000075e-01 -1.412267928224000046e+00 -1.325243547019999912e+00 -6.507839539199999912e-02 1.802323610299999893e-02 -7.434087507050000099e-01 1.650081398890000106e-01 2.195840059002999833e+00 2.098833699690000054e-01 -5.949876592489999894e-01 -1.281583980121000055e+00 1.326195137208999952e+00 4.164412220050000002e-01 6.275305506339999839e-01 -8.065874337900000302e-02 1.309352500750000092e-01 2.547303899051999831e+00 4.436735118910000164e-01 -3.814431071499999742e-02 -1.242843741189999934e-01 -2.980173288690000089e-01 8.536512674059999473e-01 1.530426683689999900e-01 -3.106486091510000103e-01 -2.634004501599999937e-02 -2.502730140620999855e+00 3.993073902929999974e-01 7.559205495100000671e-02 1.848200228159999903e-01 7.385193004629999614e-01 -3.616990237420000254e-01 -4.995430342769999754e-01 2.955576999699999763e-01 1.154996396859999941e-01 -9.196477309280000068e-01 1.145676199629999947e-01 -4.996198682299999860e-01 6.213366324160000120e-01 -8.710680029109999500e-01 -1.095210684543999946e+00 -2.894541343320000126e-01 2.960629528450000048e-01 2.181888677590000103e-01 2.666693594589999994e-01 -5.924053919959999526e-01 6.401712167980000423e-01 -4.997484382569999939e-01 1.698709728354000026e+00 6.408502738500000684e-02 -1.331299715890000013e-01 -1.135940822268000083e+00 -7.109741229849999566e-01 1.524919278193000105e+00 -5.263962305939999808e-01 -5.992807171299999874e-02 7.475948090749999775e-01 -6.829235030639999593e-01 -7.881361025649999963e-01 4.085145733359999975e-01 -8.484887152799999721e-02 5.467681488440000459e-01 -2.989507147300000112e-01 -3.303987193469999917e-01 -5.663660805000000215e-02 7.321983176070000487e-01 1.142257405029999950e-01 1.182963613139000003e+00 -6.230864118499999937e-02 -2.877218675670000225e-01 -3.712488377100000014e-01 -1.046441824170000062e-01 -5.874604914790000354e-01
1.897618329300000128e-01 -8.916486770649999505e-01 -3.815989291049999843e-01 -2.318393977699999969e-02 -5.636387746269999610e-01 -8.093504548719999692e-01 7.543668833050000133e-01 2.942010224020000231e-01 8.021530739909999985e-01 -5.245468114379999713e-01 9.582973898979999516e-01 -1.482409297210000032e-01 1.117107439299999949e-01 -8.558892543799999642e-01 9.658619590000000477e-02 4.988476010000000155e-02 -2.313726023300000101e-02 6.040428162400000162e-02 3.218361454270000088e-01 1.660811279899999937e-01 -2.311857441190000029e-01 1.829389749549999999e-01 3.165091571499999840e-02 6.388771759169999953e-01 4.349877009779999915e-01 5.820680895069999528e-01 -1.726846554410000067e-01 -1.969532164737000102e+00 9.852080889730000512e-01 -1.794969457929999901e-01 -2.067139987949999924e-01 -7.948875291960000311e-01 7.129924985919999791e-01 -1.462398757460000032e-01 2.507485079224999858e+00 -1.360515060615000049e+00 -1.270742375070000041e-01 -5.729947108880000251e-01 2.710874164950999976e+00 1.730642644745000069e+00 -1.694405542990000124e-01 1.636504247849999982e-01 -8.628931419499999422e-02 -6.069428830030000332e-01 1.413779311729999877e-01 -5.066466759390000352e-01 1.246223658042999949e+00 -1.083373071709999996e-01 -3.258345920849999855e-01 -7.850366715869999679e-01 2.821364685280000062e-01 1.674360728102000095e+00 -6.126672286300000048e-02 -9.962838632139999762e-01 3.093467697800000166e-02 2.190565668932999976e+00 2.284786267480000133e-01 -9.228521058290000134e-01 -7.032486204910000094e-01 -8.156964702290000480e-01 6.935045081720000448e-01 6.073644377569999975e-01 -8.450439871600000374e-02 1.814307684900000051e-01 5.525886817009999508e-01 3.322914578019999787e-01 5.497934581999999737e-02 2.029991122839999995e-01 1.117681132329999993e+00 -1.409667104264000104e+00 4.696968665490000028e-01 -8.662890325899999522e-02 1.213938923750000065e-01 -5.598225875540999930e+00 8.982932491680000187e-01 4.626375046969999905e-01 1.451232753349999960e-01 -2.431350558621999891e+00 -1.318069690239999925e-01 -5.640909526059999513e-01 3.819201719770000114e-01 -9.609659674800000162e-02 -2.392659269480000017e-01 -3.401104262449999860e-01 -3.454522721200000146e-01 4.774892987179999992e-01 -5.421970798449999851e-01 -1.552385552225999943e+00 -1.562532337539999927e-01 6.776937678990000435e-01 -1.450369727099999964e-02 5.901797415080000109e-01 -5.619008145199999582e-01 3.389002725220000012e-01 -7.912163228840000118e-01 1.331760948779999953e+00 3.138525790159999995e-01 -6.563161708970000063e-01 -3.471946279650000022e-01 -3.274849679410000158e-01 6.917956058659999741e-01 -3.638306413119999916e-01 1.964254606920000090e-01 6.183619840799999684e-02 2.235938912409999868e-01 3.480645055909999952e-01 1.506175350049999973e-01 3.642604733159999775e-01 2.817365549540000180e-01 9.189320682610000457e-01 -3.112112220470000246e-01 2.828401275310000185e-01 7.444621694390000100e-01 -5.036109585460000204e-01 -7.349793796600000151e-02 2.040970052240000110e-01 -2.108455045550000073e-01 3.261820230000000292e-02 -7.454628954780000427e-01 -1.782504388099999948e-01
-6.228510014999999976e-03 -1.417958439999999955e-04 -5.079006299830000071e-01 1.003235349180000013e-01 4.915632193000000344e-02 -5.034443456439999798e-01 6.216861873500000302e-01 -3.120067595520000236e-01 5.268182545599999766e-01 -3.265748410479999975e-01 5.749354244300000083e-01 -1.208798054739999989e-01 2.267609646969999948e-01 -2.900551028700000256e-01 -8.148069405199999393e-02 -3.177736329809999760e-01 3.037993447160000082e-01 2.587176255499999966e-01 4.417066625220000264e-01 -4.968119567190000252e-01 -3.255000570959999950e-01 -1.585947942170000124e-01 -3.700802758710000084e-01 7.409933133289999807e-01 3.386418666139999756e-01 1.368415689719999939e+00 -7.498540417869999919e-01 -1.636949332878999908e+00 7.563303044139999542e-01 5.341512677849999946e-01 -2.093446585110000091e-01 9.317020119499999642e-02 -4.276097468400000268e-01 7.086619064339999552e-01 7.068231842699999878e-02 -1.646722981300000055e-01 -4.276403588339999784e-01 -5.715805687380000055e-01 2.031806979635999877e+00 1.153027360667000067e+00 4.374680368100000022e-02 -9.372485581999999704e-01 -1.777714825670000109e-01 -6.593858308819999792e-01 -1.834949411189999990e-01 -7.992248042659999552e-01 2.596287162857000119e+00 3.859162865490000094e-01 -3.210092565770000239e-01 7.413901879999999778e-02 1.167187409922000096e+00 1.089652613416999927e+00 -2.548087493060000042e-01 -1.004692519051000099e+00 -2.583335654810000048e-01 -2.618399901410000119e+00 -2.333087959579999981e-01 -7.903010277230000380e-01 -1.488780113990000042e-01 -1.758517822850000023e+00 2.804525575149999783e-01 4.042785274540000029e-01 -1.071241129570000006e-01 1.202236857720000024e-01 -2.866548211695000070e+00 1.672535279700000099e-01 9.899533144500000104e-02 4.625182664479999817e-01 1.208758341560000060e+00 -1.572269947220999997e+00 3.435231073419999781e-01 -1.376480525890000084e-01 2.020132293190000095e-01 3.464907526909999924e-01 -2.028669479209999904e-01 4.481986135409999905e-01 -2.322433941210000075e-01 -1.286537023054000084e+00 6.939386638140000452e-01 -7.011409131339999545e-01 3.654018712509999878e-01 3.142257301399999786e-02 1.152573816529999906e+00 -5.388884424400000039e-01 -2.545854556100000110e-01 2.224643808539999990e-01 5.672863973039999896e-01 7.317488869299999532e-01 1.039895056690000041e-01 1.013783214770999974e+00 -2.302707110770000065e-01 8.448180849769999501e-01 -6.988216032790000032e-01 -1.574414714300000073e-02 -5.205514136409999937e-01 -6.595409721470000264e-01 5.267814662330000397e-01 -5.373846539700000147e-01 5.762947033330000357e-01 3.001308008229999769e-01 -6.321352252769999458e-01 1.995051825280000080e-01 4.899925157900000133e-02 -5.923562351140000404e-01 5.284856215950000102e-01 2.095582825960000117e-01 -2.616114612320000199e-01 4.657388374700000000e-01 -1.932532706320000127e-01 8.732232123959999814e-01 3.881287727200000148e-02 4.407931199649999798e-01 9.962591283170000311e-01 -7.292165894850000107e-01 -1.440194390827999937e+00 3.000511227339999754e-01 5.047808019200000079e-02 3.223466284379999935e-01 8.526796519300000599e-02 5.318582074779999447e-01
-4.780679815000000131e-03 6.399986762199999513e-01 -3.595510706069999785e-01 3.496414841289999798e-01 3.243752656400000212e-01 -4.135203275659999900e-01 6.190395648459999789e-01 -6.714044661179999762e-01 7.683826932289999911e-01 -2.419523756420000060e-01 3.105846826290000195e-01 -4.078951238869999996e-01 2.911726262670000231e-01 -1.864578754919999914e-01 9.190236939500000257e-02 -9.727661524870000465e-01 2.443158731270000106e-01 -2.921627217999999988e-03 7.373275682659999886e-01 -6.529748425219999985e-01 3.608863988899999736e-02 -3.920815291690000204e-01 -2.903357869029999927e-01 4.789301238309999764e-01 1.439952504979999937e-01 -2.402398495489999897e-01 -1.072274474157999924e+00 -1.506563664899999988e-01 1.562485070769999984e-01 1.985626599226999911e+00 -2.631874657009999896e-01 1.424763485799999951e-02 -9.735972331750000208e-01 4.523416653749999794e-01 5.241401218769999870e-01 1.996983669582000021e+00 -8.745792635299999562e-02 1.331499122289999892e+00 -3.476098325070000050e-01 1.167791814399000039e+00 5.697441332810000425e-01 -2.016464771290999991e+00 -1.138377745529999957e-01 -4.554154136340000103e-01 -3.112402247980000092e-01 -9.565147031570000458e-01 5.582805679090000472e-01 3.391924474379999777e-01 2.696172603720000116e-01 7.061687072800000298e-01 1.293869826429999981e-01 1.516007517409999894e-01 -2.579459323739999865e-01 -7.062597398069999644e-01 -4.957400398340000014e-01 -2.779652484894000075e+00 -5.589211801240000499e-01 -6.422542413549999774e-01 8.105943396900000542e-02 -3.188180463670000075e-01 -4.528385921809999770e-01 2.421899905150000087e-01 5.948713849400000253e-02 1.571728788179999892e-01 -1.928817982480000026e+00 -1.138154045310000029e-01 8.591809194100000213e-02 1.521019505060000054e-01 -6.602822486260000456e-01 -3.761151491440000161e-01 3.305633687500000167e-02 -3.420243022789999920e-01 9.000878508300000358e-02 3.211489559193000165e+00 -3.584767863409999977e-01 1.234112925939999938e-01 -1.023580956383000062e+00 1.561527357594000076e+00 5.432544231379999866e-01 -7.237187277280000552e-01 2.738145083410000180e-01 2.226488108269999988e-01 -6.606883159199999911e-02 -2.514250360640000181e-01 -9.169671462400000306e-02 -6.024247825299999803e-02 9.543431929790000545e-01 1.785020630815999931e+00 1.928029495159999940e-01 7.545825082860000421e-01 -3.619579796960000206e-01 5.300087752630000537e-01 -6.621866157619999971e-01 -4.921128469659999949e-01 1.496054584300000045e-01 -2.550338353601000030e+00 -1.624592132700000136e-01 -4.135833335229999741e-01 7.050030348100000399e-01 9.253321000530000395e-01 -9.162631079359999653e-01 9.652761703209999933e-01 -4.853979187390000116e-01 -1.210569166385000006e+00 -3.022909875009999747e-01 1.610388729870000091e-01 -7.843954282639999942e-01 3.977394023709999726e-01 -5.631119727760000027e-01 4.585468323979999816e-01 4.243315701800000062e-01 1.711653018269999882e-01 1.101829491873999922e+00 -1.760605297539999947e-01 -1.216877475391999974e+00 3.075300928979999848e-01 3.787844099270000209e-01 7.629794336600000115e-02 8.218425004049999538e-01 6.045910974279999905e-01