7.066685465082477968e+00 -8.848099701636771147e-03 8.640102297151085187e-02 -8.848099701636771147e-03 7.424159126428811817e+00 -7.659141604929943226e-01 8.640102297151085187e-02 -7.659141604929943226e-01 9.511040743849942913e+00
1.723294461078349826e+01 -7.407178749518403826e-01 -3.750911886159072339e-01 -7.407178749518403826e-01 1.878028041693327665e+01 -1.687092623257992474e-01 -3.750911886159072339e-01 -1.687092623257992474e-01 1.393727955486226655e+01
2.072729801452961595e+01 -1.323033894425611923e+00 -6.871341295361061974e-01 -1.323033894425611923e+00 2.347982771370818611e+01 8.813370090627117848e-02 -6.871341295361061974e-01 8.813370090627117848e-02 2.000040762393161486e+01
6.921240492822250623e+00 -1.797465950409489865e+00 -1.667985564733474035e+00 -1.797465950409489865e+00 1.658904809489746768e+01 9.439036345716487197e-01 -1.667985564733474035e+00 9.439036345716487197e-01 9.677014106415803951e+00
2.520804803698369678e+00 -1.563662395849974240e+00 -1.346267998335066274e+00 -1.563662395849974240e+00 1.435163398711440408e+01 1.756887072776702752e+00 -1.346267998335066274e+00 1.756887072776702752e+00 1.391064638242667462e+00
1.324589598042910543e+00 -1.072124882697708115e+00 -3.090533419860693187e-01 -1.072124882697708115e+00 1.366433713086035340e+01 6.469380153625021723e-01 -3.090533419860693187e-01 6.469380153625021723e-01 -2.510321047763786506e+00
1.203460292308748958e+00 -8.559728604114268391e-01 -7.017888796480468150e-01 -8.559728604114268391e-01 9.862347147602198660e+00 -1.056232432549155886e+00 -7.017888796480468150e-01 -1.056232432549155886e+00 -1.424794574329498076e+00
-5.199671791438669644e+00 -5.480323656568792945e-01 -4.851819477338410458e-01 -5.480323656568792945e-01 -5.281484284423290099e+00 3.692986107148399921e-01 -4.851819477338410458e-01 3.692986107148399921e-01 -5.273974217691875133e+00
-1.224662982791831922e+01 1.172868582743935434e-01 2.188214177362641344e+00 1.172868582743935434e-01 -1.163478543562422018e+01 7.881704940064651055e-01 2.188214177362641344e+00 7.881704940064651055e-01 -1.150713027392134258e+01
-1.493962467886237633e+01 2.430387005716156956e-01 3.682738291096304017e+00 2.430387005716156956e-01 -1.098648760915474121e+01 4.130963633548767056e-01 3.682738291096304017e+00 4.130963633548767056e-01 -1.655898665106869316e+01
-1.638880741934639929e+01 -3.499495607821322823e-02 2.616564551893802548e+00 -3.499495607821322823e-02 -1.458868059284978180e+01 -1.129059984009537221e+00 2.616564551893802548e+00 -1.129059984009537221e+00 -1.824563232429225934e+01
-1.701751104786048074e+01 -3.366697229440054895e-01 9.282426672876682439e-01 -3.366697229440054895e-01 -2.455066258463333284e+01 -1.870506326237211248e+00 9.282426672876682439e-01 -1.870506326237211248e+00 -1.555995806675943349e+01
-1.021227785810377853e+01 -1.557302762288071685e-01 4.360716980253053210e-01 -1.557302762288071685e-01 -1.722352850105577815e+01 -1.418233986566562965e+00 4.360716980253053210e-01 -1.418233986566562965e+00 -1.311168719828090445e+01
-9.865820284601587886e+00 1.704932726611226856e-01 3.201992412662286180e-01 1.704932726611226856e-01 -1.193416017695946607e+01 -6.857858241355904161e-01 3.201992412662286180e-01 -6.857858241355904161e-01 -1.791644733632402264e+01
-1.288216064558573848e+01 -1.277121016842560353e-01 -3.075416501211919451e-01 -1.277121016842560353e-01 -1.401011827050958125e+01 -1.531840890936436717e-01 -3.075416501211919451e-01 -1.531840890936436717e-01 -2.533668335396843219e+01
-1.881751337527509804e+01 -1.716716747418970623e+00 -9.192172899481195758e-01 -1.716716747418970623e+00 -1.363457082195458092e+01 -1.212212138946311191e+00 -9.192172899481195758e-01 -1.212212138946311191e+00 -2.673606878809093601e+01
-1.769027175562617415e+01 -2.590671316531396151e+00 -1.085325713483337395e+00 -2.590671316531396151e+00 -1.397407973230249389e+01 -2.094916063408873708e+00 -1.085325713483337395e+00 -2.094916063408873708e+00 -2.229117506621650691e+01
-1.407082212262551479e+01 -1.694674704615434901e+00 -2.568548625037512245e+00 -1.694674704615434901e+00 -1.713281453407810062e+01 -2.123157902752147663e+00 -2.568548625037512245e+00 -2.123157902752147663e+00 -1.852685502233333636e+01
-2.668228613278960104e+00 -1.062070606868617428e+00 -4.044319515330227155e+00 -1.062070606868617428e+00 -2.984322322774960679e+00 -2.785327034492719456e+00 -4.044319515330227155e+00 -2.785327034492719456e+00 -9.387240743274141153e+00
-7.328298934459877678e+00 -8.010244181843553246e-01 -4.213801953037540571e+00 -8.010244181843553246e-01 -1.474069265553168417e+00 -4.214234006408256739e-01 -4.213801953037540571e+00 -4.214234006408256739e-01 -1.528718095054871995e+00
-6.930452485227703185e+00 5.130910973755251625e-01 -3.059988644579228811e+00 5.130910973755251625e-01 -3.281832315322379845e+00 1.431164250394447501e+00 -3.059988644579228811e+00 1.431164250394447501e+00 1.259027051713424328e+00
-1.953635804247854768e+00 -1.276708474745458011e+00 -2.095649012366637420e-01 -1.276708474745458011e+00 -2.377359855956370449e+00 1.941948449450671133e+00 -2.095649012366637420e-01 1.941948449450671133e+00 1.222812485987917475e+00
8.103191598053674838e+00 -1.802506415605123591e+00 1.453421002596507972e+00 -1.802506415605123591e+00 1.259736545017235798e+01 7.588444606138380344e-01 1.453421002596507972e+00 7.588444606138380344e-01 8.464161811513703171e+00
7.380050337081136558e-01 -1.184538810957173061e+00 2.897794384013943514e+00 -1.184538810957173061e+00 9.632205518250849252e+00 -1.028666048274002209e+00 2.897794384013943514e+00 -1.028666048274002209e+00 1.801934922638200121e+01
-3.934706921565310545e+00 -1.540228479818128493e+00 1.368395992168093933e+00 -1.540228479818128493e+00 6.511788848875096347e-01 3.624050916840060865e-01 1.368395992168093933e+00 3.624050916840060865e-01 2.141946787314426714e+01
-3.188575474710501734e+00 -2.166231719816056778e+00 3.868054075083479093e-01 -2.166231719816056778e+00 3.917533995595929852e+00 5.739097996401111290e-01 3.868054075083479093e-01 5.739097996401111290e-01 2.110341620060660972e+01
2.266099072112300217e+00 -2.160368034729844011e-01 -1.047695490968777232e+00 -2.160368034729844011e-01 3.182021245571501566e+00 -1.284047083377714449e+00 -1.047695490968777232e+00 -1.284047083377714449e+00 1.068464100608765399e+01
1.620494548531383927e+01 7.888745671837351647e-01 -2.567931400578940426e+00 7.888745671837351647e-01 1.264572240612906562e+01 -2.019045282778465733e+00 -2.567931400578940426e+00 -2.019045282778465733e+00 1.312335258591214426e+01
1.013375893829157626e+01 -8.664036766442895221e-01 3.076393449716808420e-02 -8.664036766442895221e-01 1.819597442961188583e-01 2.229243198376791579e-01 3.076393449716808420e-02 2.229243198376791579e-01 -2.058517015241671522e-01
-6.773591729045239873e+00 -2.885518893820834929e+00 -6.592950989841442899e-01 -2.885518893820834929e+00 -5.901866153260611370e+00 -3.430426849557031699e-01 -6.592950989841442899e-01 -3.430426849557031699e-01 -7.871342524980996735e+00
-4.798690572822257749e+00 -1.998246220227668735e+00 -1.628560856911943189e+00 -1.998246220227668735e+00 1.209271244328890438e+00 -9.111645756637859472e-02 -1.628560856911943189e+00 -9.111645756637859472e-02 -6.608091263797526871e+00
2.266206943884222280e+00 -2.812432244158400430e-01 -1.705202009914396744e+00 -2.812432244158400430e-01 1.156006885652238469e-01 3.304345035476434211e-01 -1.705202009914396744e+00 3.304345035476434211e-01 -1.109665951376710957e+01
-7.265190762650923340e+00 1.284362100904498538e+00 -1.563615445720466068e+00 1.284362100904498538e+00 -8.785202884143329172e+00 2.692746400599842493e-01 -1.563615445720466068e+00 2.692746400599842493e-01 -1.469814507090438660e+01
-1.238636546758199053e+01 1.342889519439366852e+00 -1.090878983058649609e+00 1.342889519439366852e+00 -1.233109777754745728e+01 8.673497089559686346e-01 -1.090878983058649609e+00 8.673497089559686346e-01 -1.441113607658521367e+01
-1.224485914924404639e+01 -6.902893043267268602e-01 -7.256075733326370833e-03 -6.902893043267268602e-01 -1.448494766054890093e+01 9.760340122801476337e-01 -7.256075733326370833e-03 9.760340122801476337e-01 -9.886695156801549089e+00
-1.132559203534876424e+01 -1.532645980408006370e+00 4.543740535644243406e-01 -1.532645980408006370e+00 -1.720905444783035065e+01 3.668681140811389518e-01 4.543740535644243406e-01 3.668681140811389518e-01 -9.896866243016253506e+00
-1.300406134122782653e+01 -3.666962450472681656e-01 4.209016899876222295e-01 -3.666962450472681656e-01 -1.000304654101054602e+01 3.547558460621251242e-01 4.209016899876222295e-01 3.547558460621251242e-01 -8.735599574108977805e+00
-1.270853257399977743e+01 8.514442367319247085e-01 4.174895581729295979e-01 8.514442367319247085e-01 9.963799963028504569e-01 5.608703140659901942e-01 4.174895581729295979e-01 5.608703140659901942e-01 -6.096268551528231328e+00
-1.039724447381133210e+01 -1.704603638186675374e+00 8.454135125353059443e-01 -1.704603638186675374e+00 1.838849541519539832e+00 2.093041753051838150e+00 8.454135125353059443e-01 2.093041753051838150e+00 -6.551347571966303462e+00
-1.274598845836978356e+01 -3.289181348805596539e+00 1.680252277688797591e+00 -3.289181348805596539e+00 3.501324526720306918e-01 2.601124152756452812e+00 1.680252277688797591e+00 2.601124152756452812e+00 -5.326763607427637659e+00
-8.550001688174024395e+00 -3.995261632505155536e+00 2.612537466989401924e+00 -3.995261632505155536e+00 -5.037528978953508485e+00 1.200944305921989752e+00 2.612537466989401924e+00 1.200944305921989752e+00 -3.956588402055325915e+00
-5.694980796881043972e+00 -3.295059814375524976e+00 1.777640175576891135e+00 -3.295059814375524976e+00 -7.378313276370159990e+00 -5.673631536861698521e-01 1.777640175576891135e+00 -5.673631536861698521e-01 -3.243496852942979736e+00
-5.294303578331927440e+00 -1.311916109653003204e+00 1.005197201621715219e+00 -1.311916109653003204e+00 -5.349670537586830754e+00 -2.884409245890606321e+00 1.005197201621715219e+00 -2.884409245890606321e+00 -8.461152750177197035e+00
-8.684633305956459992e+00 5.785796225435612117e-01 1.638906099463566024e+00 5.785796225435612117e-01 -1.445688860461875891e-01 -3.884706250464252886e+00 1.638906099463566024e+00 -3.884706250464252886e+00 -1.144927658836691897e+01
-8.326158911151960496e+00 1.910745920801609543e+00 1.745233948237489230e+00 1.910745920801609543e+00 4.109451809823225332e+00 -3.890278400268219361e+00 1.745233948237489230e+00 -3.890278400268219361e+00 -1.023207886583072579e+01
-6.232937254199782728e+00 2.570444265239166359e+00 1.204530787951666237e+00 2.570444265239166359e+00 5.387188897772309915e+00 -3.988079726103133549e+00 1.204530787951666237e+00 -3.988079726103133549e+00 -8.248390451602841011e+00
8.806969117767509125e-01 9.853286679727872865e-01 9.355833387249312683e-02 9.853286679727872865e-01 5.300659733235919546e+00 -3.419664911920002215e+00 9.355833387249312683e-02 -3.419664911920002215e+00 -4.097643125973483791e+00
-3.454398680456976400e+00 -1.697330714465196122e+00 -4.414740770153284255e-01 -1.697330714465196122e+00 -4.674379975186761627e+00 -3.578556617378384264e+00 -4.414740770153284255e-01 -3.578556617378384264e+00 -9.852020829641109145e+00
-2.248601072983480442e+00 -2.344367139463544802e+00 -5.515105063675718178e-01 -2.344367139463544802e+00 -5.099740861029230743e+00 -1.958398237626232552e+00 -5.515105063675718178e-01 -1.958398237626232552e+00 -1.031947443898320138e+01
6.793369340646380650e+00 -2.019853427934796386e+00 1.345362891590143051e-01 -2.019853427934796386e+00 5.349494947100633446e+00 -4.948144045273598080e-01 1.345362891590143051e-01 -4.948144045273598080e-01 -7.062240253246829802e+00
1.041212269554383063e+01 -1.365342957146797431e+00 5.340871232128885371e-01 -1.365342957146797431e+00 1.303529314342553924e+01 -2.828894937687353450e-01 5.340871232128885371e-01 -2.828894937687353450e-01 -2.806197975780090115e+00
7.744377929236917701e+00 -9.274916999995868050e-01 1.339485393087339604e+00 -9.274916999995868050e-01 6.073187506067748487e+00 -1.548785640400155705e-01 1.339485393087339604e+00 -1.548785640400155705e-01 -2.577287955335041847e+00
3.787960718122131087e+00 -5.465652948970554093e-01 1.558622646449854932e+00 -5.465652948970554093e-01 -5.512617159580932569e-01 7.790746936016866575e-02 1.558622646449854932e+00 7.790746936016866575e-02 -3.673225534130963421e+00
4.726279170661972451e+00 6.148846369198456285e-01 1.873434799766166892e+00 6.148846369198456285e-01 -4.629057795340854042e+00 8.176630509505919964e-01 1.873434799766166892e+00 8.176630509505919964e-01 -2.034112599499940721e+00
1.937338363256435159e+01 1.786403676245003735e+00 2.181915220443738423e+00 1.786403676245003735e+00 4.262600548934977418e+00 2.119123997630871337e+00 2.181915220443738423e+00 2.119123997630871337e+00 1.663364072813256378e+00
1.347393319283040825e+01 1.574773656255201715e+00 1.622419737899136072e+00 1.574773656255201715e+00 4.569992427656699441e+00 2.557129762047811283e+00 1.622419737899136072e+00 2.557129762047811283e+00 5.859813506172776437e-02
3.322537585800037441e+00 4.612776548754075612e-01 6.531264318372875799e-01 4.612776548754075612e-01 -5.417035510488234173e+00 1.648426837407162449e+00 6.531264318372875799e-01 1.648426837407162449e+00 -3.421996450378955057e+00
1.323516855372849799e+00 -1.851870657394638631e-01 -3.332206219840157524e-01 -1.851870657394638631e-01 -3.871011360357980546e+00 7.914233979652882667e-01 -3.332206219840157524e-01 7.914233979652882667e-01 -1.057607961168391952e+00
4.656229361435215708e+00 7.876358933912434024e-01 -1.553091561967456347e+00 7.876358933912434024e-01 1.650393260504452453e+00 -1.445138900227823167e-02 -1.553091561967456347e+00 -1.445138900227823167e-02 7.464403142828633264e+00
6.518200607373177746e+00 3.439568212231541189e+00 -2.678277940202974605e+00 3.439568212231541189e+00 8.310723694591404254e+00 9.667761090631989962e-01 -2.678277940202974605e+00 9.667761090631989962e-01 6.995597598478332735e+00
-1.834058464498003471e-02 4.168255365747724817e+00 -3.933674455447106144e+00 4.168255365747724817e+00 5.659302610614230788e-01 -1.434088191785196365e-01 -3.933674455447106144e+00 -1.434088191785196365e-01 4.149618064067813528e+00
-2.344288013506307777e+00 3.349126563704180715e+00 -4.698479926598111867e+00 3.349126563704180715e+00 -3.520961698170771204e+00 -2.197743093260294600e+00 -4.698479926598111867e+00 -2.197743093260294600e+00 -8.467793812618839011e-01
6.425236565700136460e+00 9.416885652651936223e-01 -3.811132591886835730e+00 9.416885652651936223e-01 -2.924921652746567347e+00 -3.540575381652433684e+00 -3.811132591886835730e+00 -3.540575381652433684e+00 -6.430706380094138863e-01
4.567755399823441032e+00 1.712727151863168221e-02 -2.423368936609632041e+00 1.712727151863168221e-02 -4.492376268337005207e+00 -4.338279319088411690e+00 -2.423368936609632041e+00 -4.338279319088411690e+00 -5.405027191720507496e+00
-7.466738125428713957e+00 -6.897876011418399012e-01 -4.319301518964202002e-01 -6.897876011418399012e-01 -1.143502174169215202e+01 -3.731988097689868944e+00 -4.319301518964202002e-01 -3.731988097689868944e+00 -1.014291150372196348e+01
-1.427685409783443404e+01 4.001195147735786550e-01 3.415973760329116260e-01 4.001195147735786550e-01 -1.721218187430435620e+01 -3.312045504570297005e+00 3.415973760329116260e-01 -3.312045504570297005e+00 -6.389479285512526197e+00
-1.211916842312388454e+01 2.138084976067956777e+00 -5.211810520237718514e-01 2.138084976067956777e+00 -1.487225634621287895e+01 -1.925063489954574436e+00 -5.211810520237718514e-01 -1.925063489954574436e+00 -1.011383900386754853e+01
6.393233665671536059e-01 2.672541822394221001e+00 -7.144488048748726117e-01 2.672541822394221001e+00 -6.610952121728598918e+00 -1.799145769073311252e+00 -7.144488048748726117e-01 -1.799145769073311252e+00 -1.164039392720110655e+01
1.139132347820988578e+01 2.003290999422703056e+00 -1.497199226426486618e-01 2.003290999422703056e+00 -6.768384096376593106e+00 -3.465817365417930951e+00 -1.497199226426486618e-01 -3.465817365417930951e+00 -1.035082701551685247e+01
8.123649553314529204e-01 1.123514940941886531e+00 1.179851840822174376e-02 1.123514940941886531e+00 -8.073734648534523828e+00 -4.430959216649965171e+00 1.179851840822174376e-02 -4.430959216649965171e+00 -1.236989639742460234e+01
-1.356314993962679871e+01 1.786131991935364927e-01 1.557868280525865068e-01 1.786131991935364927e-01 -1.156443997452526773e+01 -3.079417711362429255e+00 1.557868280525865068e-01 -3.079417711362429255e+00 -6.295036400468837279e+00
-1.142668354441746636e+01 -3.771380053132626919e-01 8.097843398819761784e-01 -3.771380053132626919e-01 -9.611820914837704066e+00 -1.067018476196782029e+00 8.097843398819761784e-01 -1.067018476196782029e+00 -1.541592265784396121e-01
-5.481493549352245864e+00 -1.166481606742838739e+00 1.263271533602409624e+00 -1.166481606742838739e+00 1.149629251126475182e+00 -5.453712964369532568e-01 1.263271533602409624e+00 -5.453712964369532568e-01 -1.086324945301838873e+00
-5.439396693195134525e+00 -2.077902911916854833e+00 1.288771187177123911e+00 -2.077902911916854833e+00 2.676445269759329282e+00 3.855593442326555459e-02 1.288771187177123911e+00 3.855593442326555459e-02 -7.291724764831794658e+00
-5.910757402255490511e+00 -1.014019074854707769e+00 -1.220020201150246120e+00 -1.014019074854707769e+00 4.582218606055045385e+00 3.431422994379018099e-01 -1.220020201150246120e+00 3.431422994379018099e-01 -7.376839578442934808e+00
2.942378821174227443e+00 1.619755374329994835e+00 -3.109338499352878316e+00 1.619755374329994835e+00 1.205578448715747086e+01 -1.737486165600476418e-01 -3.109338499352878316e+00 -1.737486165600476418e-01 -3.256766086169187613e+00
7.799483617272461977e+00 3.157391093972745644e-01 -1.189123149140173252e+00 3.157391093972745644e-01 6.634770533807032855e+00 -1.321550314717449881e+00 -1.189123149140173252e+00 -1.321550314717449881e+00 -4.308059852379237942e-01
4.041300398310124109e+00 -6.393770983099471561e-01 -1.229821587970945540e+00 -6.393770983099471561e-01 -5.433650613781044747e+00 -1.749817455348401385e+00 -1.229821587970945540e+00 -1.749817455348401385e+00 -5.495128060173216866e+00
-2.876481019044605514e+00 9.010226774444866082e-01 -1.522949231782535939e+00 9.010226774444866082e-01 -5.182698211175773118e+00 -2.266738007692727486e+00 -1.522949231782535939e+00 -2.266738007692727486e+00 -1.371300120711304515e+01
-7.843232142579334543e+00 1.532274216592580673e+00 -7.809593962316809801e-01 1.532274216592580673e+00 -3.936848487777572014e+00 -2.900334591042542876e+00 -7.809593962316809801e-01 -2.900334591042542876e+00 -9.848131348564695742e+00
-1.055855602178995412e+01 7.166827507579607293e-01 -4.868494950430252155e-01 7.166827507579607293e-01 -1.954008982580498710e+00 -3.341288597655196480e+00 -4.868494950430252155e-01 -3.341288597655196480e+00 -1.580378574350944021e+01
-1.152910004616320760e+00 2.009770182056171084e+00 3.800853632846138974e-01 2.009770182056171084e+00 -7.001848668168032530e-01 -1.642961328101629093e+00 3.800853632846138974e-01 -1.642961328101629093e+00 -2.137891643983901702e+01
6.871329557426989476e-01 2.723202167747608815e+00 -4.135055686692897803e-01 2.723202167747608815e+00 -1.203703731422487699e+01 8.968322845879447280e-01 -4.135055686692897803e-01 8.968322845879447280e-01 -1.696037555210985559e+01
2.012557711600963195e+00 1.029363269764431266e+00 -1.617739059116856559e+00 1.029363269764431266e+00 -1.348313614852063580e+01 4.543802928421312171e-01 -1.617739059116856559e+00 4.543802928421312171e-01 -1.382222711762413780e+01
-2.899228279681704823e+00 8.514784462334535897e-01 -1.153734242663013942e+00 8.514784462334535897e-01 -4.128988685297191985e+00 -2.853684767825978241e+00 -1.153734242663013942e+00 -2.853684767825978241e+00 -1.171306142607440570e+01
-8.572027115125806507e-01 -1.082004002690497790e+00 -6.949635850157440675e-01 -1.082004002690497790e+00 9.422004641235597333e+00 -4.094315463619197182e+00 -6.949635850157440675e-01 -4.094315463619197182e+00 -5.454143781863820983e+00
-1.142345965900184446e+01 -2.324382440249840975e+00 -7.348058357846820599e-01 -2.324382440249840975e+00 6.764266777053720148e+00 -3.012105951421289340e+00 -7.348058357846820599e-01 -3.012105951421289340e+00 -4.327162501417283202e+00
-1.673377436860369016e+01 -2.182963477798512297e+00 -1.101988831413774905e+00 -2.182963477798512297e+00 -6.659257644073623084e+00 -3.432225591338846638e+00 -1.101988831413774905e+00 -3.432225591338846638e+00 -8.122707932024109567e+00
-5.913964822660074283e+00 -9.243792871782990916e-01 4.348166519302862354e-01 -9.243792871782990916e-01 -1.035319099961466094e+01 -4.655116881298964060e+00 4.348166519302862354e-01 -4.655116881298964060e+00 -7.915473255159229282e+00
2.568947466579448502e+00 -1.046214824763176399e+00 1.761779051160428766e+00 -1.046214824763176399e+00 -4.253768062868553024e+00 -5.660266984504645826e+00 1.761779051160428766e+00 -5.660266984504645826e+00 -5.108526625371038854e+00
3.414657973213173658e+00 2.444444709060368190e-02 9.012510304451559762e-01 2.444444709060368190e-02 4.208730947236883901e-01 -5.443288967516640042e+00 9.012510304451559762e-01 -5.443288967516640042e+00 -4.275722478273887184e+00
-3.050278906461952655e+00 2.591239995951498676e-01 2.261421866603925857e+00 2.591239995951498676e-01 -6.684301062303528163e+00 -4.309034600764748646e+00 2.261421866603925857e+00 -4.309034600764748646e+00 -6.426492072554744084e+00
6.622076768964717530e-01 -5.983214820242384047e-01 3.126979529399306124e+00 -5.983214820242384047e-01 -9.128523036626779330e+00 -3.595706147912524298e+00 3.126979529399306124e+00 -3.595706147912524298e+00 -6.706564397668112854e+00
1.095942232868482469e+00 -2.266249037950219591e+00 4.441486213859121790e+00 -2.266249037950219591e+00 -1.102225647934420349e+00 -3.710899675716548884e+00 4.441486213859121790e+00 -3.710899675716548884e+00 -4.539309181946008742e+00
1.613848714463326228e+00 -1.955522544018702957e+00 4.811235688583700210e+00 -1.955522544018702957e+00 4.862580504607002752e+00 -2.902690944380553084e+00 4.811235688583700210e+00 -2.902690944380553084e+00 -5.210115637522108045e+00
2.511632559998691061e+00 7.552202117302525552e-02 2.991481054008042761e+00 7.552202117302525552e-02 -1.386174004867346543e+00 -2.971258695761891833e+00 2.991481054008042761e+00 -2.971258695761891833e+00 -5.103018637681373981e+00
-3.549665229522212025e-03 3.656390596714135244e-01 3.217406733802021357e+00 3.656390596714135244e-01 -6.463132926672632728e+00 -3.392452186883653020e+00 3.217406733802021357e+00 -3.392452186883653020e+00 -5.251072664138951573e+00
-2.905352075664175082e+00 1.023534198216823482e-01 4.166752840126048518e+00 1.023534198216823482e-01 -1.075626518709152535e+01 -1.640862439273351070e+00 4.166752840126048518e+00 -1.640862439273351070e+00 -2.127615371405945588e+00
2.204510951369964999e+00 -2.520117434177672200e-01 2.824376973611059771e+00 -2.520117434177672200e-01 -6.044379399314387946e+00 -8.949176173188201355e-01 2.824376973611059771e+00 -8.949176173188201355e-01 2.870527987804796233e+00
8.604819977936211117e+00 -4.290012302741087469e-01 1.222212030460956833e-01 -4.290012302741087469e-01 -6.029898878808080953e-01 -5.799280301584465169e-01 1.222212030460956833e-01 -5.799280301584465169e-01 4.274118125480013131e-01
5.102710946028172767e-01 -6.008584793652298472e-01 -9.119285743661632582e-01 -6.008584793652298472e-01 -2.048023725727416977e+00 2.309999826938777256e-01 -9.119285743661632582e-01 2.309999826938777256e-01 -5.872099364026544421e+00
-9.175535100664374610e+00 -8.040763195263140872e-01 -8.218289871229705890e-01 -8.040763195263140872e-01 -1.055738737093373958e+00 1.014888775803869603e+00 -8.218289871229705890e-01 1.014888775803869603e+00 -9.080611552370372763e+00
-1.120002633398615366e+01 3.285165693751661564e-01 -2.128002727972483077e-01 3.285165693751661564e-01 4.707007243968255317e-01 1.451150161304008979e+00 -2.128002727972483077e-01 1.451150161304008979e+00 7.661802615689562723e-02
-9.644673965576840757e+00 1.363267066383395232e+00 -1.381869125581258184e-01 1.363267066383395232e+00 4.508760097816371520e-02 1.562582845844242341e+00 -1.381869125581258184e-01 1.562582845844242341e+00 -9.508082127338650380e-02
-6.217283236043564365e+00 1.915862892644702553e+00 -1.141293269256411225e-01 1.915862892644702553e+00 -3.247377569159056510e+00 1.268595915767477322e+00 -1.141293269256411225e-01 1.268595915767477322e+00 -6.377042366013781383e+00
-4.459206473257227854e-01 2.011111826940972680e+00 -4.123808699559811108e-01 2.011111826940972680e+00 -2.455267257859258923e+00 1.234421068185430403e+00 -4.123808699559811108e-01 1.234421068185430403e+00 -1.013132634210830041e+01
-7.640677922330733063e-01 8.992220369855513651e-01 -2.877769095572033642e-01 8.992220369855513651e-01 2.177582927041186167e+00 1.971087983029003787e+00 -2.877769095572033642e-01 1.971087983029003787e+00 -8.519200329879449640e+00
-1.761973418997710428e-01 -5.034547628039661715e-01 -1.565811968026997736e-01 -5.034547628039661715e-01 8.127999965142963745e+00 2.740733064859375734e+00 -1.565811968026997736e-01 2.740733064859375734e+00 -2.917369438821530547e+00
-2.637816494669914302e+00 -5.132473681326434889e-01 -1.568115898268261643e-01 -5.132473681326434889e-01 1.045679968132418480e+01 2.133225555682009222e+00 -1.568115898268261643e-01 2.133225555682009222e+00 2.994197453400034181e+00
-4.911684006378063572e+00 1.299657332716640745e+00 -1.826510679760961153e+00 1.299657332716640745e+00 2.097240034542932730e+00 3.926453999197510036e-01 -1.826510679760961153e+00 3.926453999197510036e-01 2.285705958705356977e+00
-3.685773499076150816e+00 2.067936458681021161e+00 -2.690733024711741805e+00 2.067936458681021161e+00 8.568635168053622131e-01 9.994098641850741871e-02 -2.690733024711741805e+00 9.994098641850741871e-02 3.498448775400960997e+00
2.592908118823884056e+00 2.676692702316024075e+00 -2.559652572580957575e+00 2.676692702316024075e+00 -3.144668659219992612e+00 2.432670615741020781e-01 -2.559652572580957575e+00 2.432670615741020781e-01 3.158203915176334142e+00
5.153061738404590919e+00 9.590973794712596145e-01 -2.376771288909690139e+00 9.590973794712596145e-01 2.920128999693379912e-01 9.763292095050579711e-01 -2.376771288909690139e+00 9.763292095050579711e-01 3.521226572181234360e+00
5.802431629540666380e-01 -1.305574514262201058e+00 -2.067059279720361520e+00 -1.305574514262201058e+00 2.780139681869651991e+00 1.476047246169325922e+00 -2.067059279720361520e+00 1.476047246169325922e+00 2.624177817759570708e+00
-3.519485832554973381e+00 -1.867944360026601913e+00 -1.911551719244001246e+00 -1.867944360026601913e+00 6.670680173544472069e+00 7.216759419072381609e-01 -1.911551719244001246e+00 7.216759419072381609e-01 -9.615282500665359167e-02
-4.049908946722193370e+00 -1.647694682998772642e-01 -1.210765918546666375e+00 -1.647694682998772642e-01 6.391065796721432157e+00 5.100622015522863345e-02 -1.210765918546666375e+00 5.100622015522863345e-02 4.221255341606834577e+00
-2.399110575441202098e+00 2.798477138790194108e+00 -3.236923120927566178e-01 2.798477138790194108e+00 3.241208971195698840e+00 -4.075994442676687535e-01 -3.236923120927566178e-01 -4.075994442676687535e-01 4.390025980245735759e+00
-5.048339889476519460e+00 3.261951459384606622e+00 -3.163447589378732827e-01 3.261951459384606622e+00 -2.902649514784820362e+00 3.835762396346186764e-01 -3.163447589378732827e-01 3.835762396346186764e-01 -6.234573538904577550e-01
-4.940791750510443947e+00 2.470299579014384239e+00 -1.194823624544890661e+00 2.470299579014384239e+00 -5.137756197121795543e-01 9.322681306376489063e-01 -1.194823624544890661e+00 9.322681306376489063e-01 -4.841244463571671375e+00
-4.492288813650910484e+00 1.787634849030778961e+00 -1.227478434181375810e+00 1.787634849030778961e+00 5.966693376265386206e-01 1.485093870131719118e+00 -1.227478434181375810e+00 1.485093870131719118e+00 -6.044824154217869783e+00
-8.638097365815944784e+00 2.022299436635713654e+00 -6.311731641556889150e-02 2.022299436635713654e+00 -7.199863281612848276e+00 9.291726129215560626e-01 -6.311731641556889150e-02 9.291726129215560626e-01 -1.873708231926486167e+00
-1.052984615050153927e+01 1.488140199385770412e-01 9.206357782881487151e-02 1.488140199385770412e-01 -1.106124263975252298e+01 -3.260464550340370221e-02 9.206357782881487151e-02 -3.260464550340370221e-02 -5.534621981715484473e+00
-1.302692206509914641e+01 -1.624532339610418097e+00 3.760049886309780875e-01 -1.624532339610418097e+00 -3.037556477440300995e+00 2.376271680091706529e+00 3.760049886309780875e-01 2.376271680091706529e+00 -1.124442743312257775e+01
-8.867263791184575084e+00 -2.048629745382748890e+00 1.404821396047716719e+00 -2.048629745382748890e+00 1.167462956910939820e+00 3.078865662607642051e+00 1.404821396047716719e+00 3.078865662607642051e+00 -1.285053075745096685e+01
2.197913770401466849e+00 1.260218492901883647e-01 3.540855554400911487e+00 1.260218492901883647e-01 9.080927126533739902e-01 2.606517555010924081e+00 3.540855554400911487e+00 2.606517555010924081e+00 -7.570474365857764454e+00
8.998308280545886717e+00 4.040104192758434465e+00 3.949637041696683948e+00 4.040104192758434465e+00 3.027508691893647352e+00 4.068512424870998068e+00 3.949637041696683948e+00 4.068512424870998068e+00 3.931964967097886898e+00
1.022536387178463357e+01 4.474916279606395264e+00 -2.160051690395163315e-01 4.474916279606395264e+00 -5.538191023725198114e+00 3.807125477313716200e+00 -2.160051690395163315e-01 3.807125477313716200e+00 2.916248998000509296e+00
3.295798835335049581e+00 2.335678912374161253e+00 -2.723780575393138115e+00 2.335678912374161253e+00 -2.069261691323373231e+00 3.377794550766700432e+00 -2.723780575393138115e+00 3.377794550766700432e+00 -8.738896053679367171e+00
-6.431471638839902027e+00 2.731507022511396432e+00 -3.334916792698109145e+00 2.731507022511396432e+00 -7.199865636410343050e+00 3.884891109450828051e+00 -3.334916792698109145e+00 3.884891109450828051e+00 -1.084933305233347944e+01
-7.089533896016975589e+00 2.944786698255991375e+00 -2.864154508499766827e+00 2.944786698255991375e+00 -5.471269529957188738e+00 4.576346791629624100e+00 -2.864154508499766827e+00 4.576346791629624100e+00 -8.775990478608342471e+00