7.951919231928300746e+00 -0.000000000000000000e+00 0.000000000000000000e+00 -0.000000000000000000e+00 7.952599600630893661e+00 0.000000000000000000e+00 0.000000000000000000e+00 0.000000000000000000e+00 7.952589595205488138e+00
7.953047989390833017e+00 -0.000000000000000000e+00 0.000000000000000000e+00 -0.000000000000000000e+00 7.953728454670869752e+00 0.000000000000000000e+00 0.000000000000000000e+00 0.000000000000000000e+00 7.953718447824472904e+00
7.957011795255972686e+00 -0.000000000000000000e+00 0.000000000000000000e+00 -0.000000000000000000e+00 7.957692599680058265e+00 0.000000000000000000e+00 0.000000000000000000e+00 0.000000000000000000e+00 7.957682587846688804e+00
7.962662297906978992e+00 -0.000000000000000000e+00 0.000000000000000000e+00 -0.000000000000000000e+00 7.963343585790280343e+00 0.000000000000000000e+00 0.000000000000000000e+00 0.000000000000000000e+00 7.963333566846952039e+00
7.966672775914458882e+00 -0.000000000000000000e+00 0.000000000000000000e+00 -0.000000000000000000e+00 7.967354406935785782e+00 0.000000000000000000e+00 0.000000000000000000e+00 0.000000000000000000e+00 7.967344382946486725e+00
7.967114715338523112e+00 -0.000000000000000000e+00 0.000000000000000000e+00 -0.000000000000000000e+00 7.967796384171631274e+00 0.000000000000000000e+00 0.000000000000000000e+00 0.000000000000000000e+00 7.967786359626336079e+00
7.964217235839286424e+00 -0.000000000000000000e+00 0.000000000000000000e+00 -0.000000000000000000e+00 7.964898656763822693e+00 0.000000000000000000e+00 0.000000000000000000e+00 0.000000000000000000e+00 7.964888635863506039e+00
7.960471005974714132e+00 -0.000000000000000000e+00 0.000000000000000000e+00 -0.000000000000000000e+00 7.961152106370095183e+00 0.000000000000000000e+00 0.000000000000000000e+00 0.000000000000000000e+00 7.961142090183751741e+00
7.957823152588556326e+00 -0.000000000000000000e+00 0.000000000000000000e+00 -0.000000000000000000e+00 7.958504026433240952e+00 0.000000000000000000e+00 0.000000000000000000e+00 0.000000000000000000e+00 7.958494013578877535e+00
7.956734497814180962e+00 -0.000000000000000000e+00 0.000000000000000000e+00 -0.000000000000000000e+00 7.957415278513401802e+00 0.000000000000000000e+00 0.000000000000000000e+00 0.000000000000000000e+00 7.957405267028031304e+00
7.956916181376354480e+00 -0.000000000000000000e+00 0.000000000000000000e+00 -0.000000000000000000e+00 7.957596977620487344e+00 0.000000000000000000e+00 0.000000000000000000e+00 0.000000000000000000e+00 7.957586965907117005e+00
7.959924631474810219e+00 -0.000000000000000000e+00 0.000000000000000000e+00 -0.000000000000000000e+00 7.960605685122461139e+00 0.000000000000000000e+00 0.000000000000000000e+00 0.000000000000000000e+00 7.960595669624113135e+00
7.966755269056603694e+00 -0.000000000000000000e+00 0.000000000000000000e+00 -0.000000000000000000e+00 7.967436907134890056e+00 0.000000000000000000e+00 0.000000000000000000e+00 0.000000000000000000e+00 7.967426883041591523e+00
7.974502088304578962e+00 -0.000000000000000000e+00 0.000000000000000000e+00 -0.000000000000000000e+00 7.975184389204049928e+00 0.000000000000000000e+00 0.000000000000000000e+00 0.000000000000000000e+00 7.975174355362807610e+00
7.979998253226998628e+00 -0.000000000000000000e+00 0.000000000000000000e+00 -0.000000000000000000e+00 7.980681024380761990e+00 0.000000000000000000e+00 0.000000000000000000e+00 0.000000000000000000e+00 7.980670983624560400e+00
7.983468256035617827e+00 -0.000000000000000000e+00 0.000000000000000000e+00 -0.000000000000000000e+00 7.984151324083671675e+00 0.000000000000000000e+00 0.000000000000000000e+00 0.000000000000000000e+00 7.984141278961494947e+00
7.986414496720168898e+00 -0.000000000000000000e+00 0.000000000000000000e+00 -0.000000000000000000e+00 7.987097816848772958e+00 0.000000000000000000e+00 0.000000000000000000e+00 0.000000000000000000e+00 7.987087768019616618e+00
7.989848707989815502e+00 -0.000000000000000000e+00 0.000000000000000000e+00 -0.000000000000000000e+00 7.990532321950727379e+00 0.000000000000000000e+00 0.000000000000000000e+00 0.000000000000000000e+00 7.990522268800595462e+00
7.992170709320675748e+00 -0.000000000000000000e+00 0.000000000000000000e+00 -0.000000000000000000e+00 7.992854521952445168e+00 0.000000000000000000e+00 0.000000000000000000e+00 0.000000000000000000e+00 7.992844465880330596e+00
7.991218882938674994e+00 -0.000000000000000000e+00 0.000000000000000000e+00 -0.000000000000000000e+00 7.991902614132913030e+00 0.000000000000000000e+00 0.000000000000000000e+00 0.000000000000000000e+00 7.991892559257792072e+00
7.987219517056229456e+00 -0.000000000000000000e+00 0.000000000000000000e+00 -0.000000000000000000e+00 7.987902906062436692e+00 0.000000000000000000e+00 0.000000000000000000e+00 0.000000000000000000e+00 7.987892856220287108e+00
7.983203393365246647e+00 -0.000000000000000000e+00 0.000000000000000000e+00 -0.000000000000000000e+00 7.983886438750431580e+00 0.000000000000000000e+00 0.000000000000000000e+00 0.000000000000000000e+00 7.983876393962253459e+00
7.981949475479176215e+00 -0.000000000000000000e+00 0.000000000000000000e+00 -0.000000000000000000e+00 7.982632413578978792e+00 0.000000000000000000e+00 0.000000000000000000e+00 0.000000000000000000e+00 7.982622370367789877e+00
7.982069363573064180e+00 -0.000000000000000000e+00 0.000000000000000000e+00 -0.000000000000000000e+00 7.982752311930807920e+00 0.000000000000000000e+00 0.000000000000000000e+00 0.000000000000000000e+00 7.982742268568620680e+00
7.979770229067574050e+00 -0.000000000000000000e+00 0.000000000000000000e+00 -0.000000000000000000e+00 7.980452980710450284e+00 0.000000000000000000e+00 0.000000000000000000e+00 0.000000000000000000e+00 7.980442940241246674e+00
7.974010478700432003e+00 -0.000000000000000000e+00 0.000000000000000000e+00 -0.000000000000000000e+00 7.974692737537145248e+00 0.000000000000000000e+00 0.000000000000000000e+00 0.000000000000000000e+00 7.974682704314898452e+00
7.966902577756650672e+00 -0.000000000000000000e+00 0.000000000000000000e+00 -0.000000000000000000e+00 7.967584228439863914e+00 0.000000000000000000e+00 0.000000000000000000e+00 0.000000000000000000e+00 7.967574204160566609e+00
7.961580494614163506e+00 -0.000000000000000000e+00 0.000000000000000000e+00 -0.000000000000000000e+00 7.962261689937998099e+00 0.000000000000000000e+00 0.000000000000000000e+00 0.000000000000000000e+00 7.962251672355662002e+00
7.960852470791888180e+00 -0.000000000000000000e+00 0.000000000000000000e+00 -0.000000000000000000e+00 7.961533603825080796e+00 0.000000000000000000e+00 0.000000000000000000e+00 0.000000000000000000e+00 7.961523587158739979e+00
7.964767041273441706e+00 -0.000000000000000000e+00 0.000000000000000000e+00 -0.000000000000000000e+00 7.965448509238706620e+00 0.000000000000000000e+00 0.000000000000000000e+00 0.000000000000000000e+00 7.965438487647393373e+00
7.969353199869130933e+00 -0.000000000000000000e+00 0.000000000000000000e+00 -0.000000000000000000e+00 7.970035060228137347e+00 0.000000000000000000e+00 0.000000000000000000e+00 0.000000000000000000e+00 7.970025032865858172e+00
7.972449294763077177e+00 -0.000000000000000000e+00 0.000000000000000000e+00 -0.000000000000000000e+00 7.973131420024558658e+00 0.000000000000000000e+00 0.000000000000000000e+00 0.000000000000000000e+00 7.973121388767301809e+00
7.973571772550756442e+00 -0.000000000000000000e+00 0.000000000000000000e+00 -0.000000000000000000e+00 7.974253993851685429e+00 0.000000000000000000e+00 0.000000000000000000e+00 0.000000000000000000e+00 7.974243961181437079e+00
7.972748357793580709e+00 -0.000000000000000000e+00 0.000000000000000000e+00 -0.000000000000000000e+00 7.973430508642914027e+00 0.000000000000000000e+00 0.000000000000000000e+00 0.000000000000000000e+00 7.973420477009659280e+00
7.971554411699293574e+00 -0.000000000000000000e+00 0.000000000000000000e+00 -0.000000000000000000e+00 7.972236460395215829e+00 0.000000000000000000e+00 0.000000000000000000e+00 0.000000000000000000e+00 7.972226430262952412e+00
7.970992866293717505e+00 -0.000000000000000000e+00 0.000000000000000000e+00 -0.000000000000000000e+00 7.971674866942916715e+00 0.000000000000000000e+00 0.000000000000000000e+00 0.000000000000000000e+00 7.971664837517649538e+00
7.971458847987387131e+00 -0.000000000000000000e+00 0.000000000000000000e+00 -0.000000000000000000e+00 7.972140888506356937e+00 0.000000000000000000e+00 0.000000000000000000e+00 0.000000000000000000e+00 7.972130858494091754e+00
7.974975160775430894e+00 -0.000000000000000000e+00 0.000000000000000000e+00 -0.000000000000000000e+00 7.975657502150669487e+00 0.000000000000000000e+00 0.000000000000000000e+00 0.000000000000000000e+00 7.975647467714430228e+00
7.981012296415860519e+00 -0.000000000000000000e+00 0.000000000000000000e+00 -0.000000000000000000e+00 7.981695154330124886e+00 0.000000000000000000e+00 0.000000000000000000e+00 0.000000000000000000e+00 7.981685112297930651e+00
7.986874013306053399e+00 -0.000000000000000000e+00 0.000000000000000000e+00 -0.000000000000000000e+00 7.987557372751431295e+00 0.000000000000000000e+00 0.000000000000000000e+00 0.000000000000000000e+00 7.987547323344277750e+00
7.991280787895331805e+00 -0.000000000000000000e+00 0.000000000000000000e+00 -0.000000000000000000e+00 7.991964524385538837e+00 0.000000000000000000e+00 0.000000000000000000e+00 0.000000000000000000e+00 7.991954469432418051e+00
7.993145036513155333e+00 -0.000000000000000000e+00 0.000000000000000000e+00 -0.000000000000000000e+00 7.993828932509443597e+00 0.000000000000000000e+00 0.000000000000000000e+00 0.000000000000000000e+00 7.993818875211337271e+00
7.991723423823386518e+00 -0.000000000000000000e+00 0.000000000000000000e+00 -0.000000000000000000e+00 7.992407198185374817e+00 0.000000000000000000e+00 0.000000000000000000e+00 0.000000000000000000e+00 7.992397142676257005e+00
7.986583371021077404e+00 -0.000000000000000000e+00 0.000000000000000000e+00 -0.000000000000000000e+00 7.987266705598598193e+00 0.000000000000000000e+00 0.000000000000000000e+00 0.000000000000000000e+00 7.987256656556443346e+00
7.977212803126888296e+00 -0.000000000000000000e+00 0.000000000000000000e+00 -0.000000000000000000e+00 7.977895335955023981e+00 0.000000000000000000e+00 0.000000000000000000e+00 0.000000000000000000e+00 7.977885298703800920e+00
7.965546627711908023e+00 -0.000000000000000000e+00 0.000000000000000000e+00 -0.000000000000000000e+00 7.966228162379787925e+00 0.000000000000000000e+00 0.000000000000000000e+00 0.000000000000000000e+00 7.966218139806481524e+00
7.956120431517931024e+00 -0.000000000000000000e+00 0.000000000000000000e+00 -0.000000000000000000e+00 7.956801159676454738e+00 0.000000000000000000e+00 0.000000000000000000e+00 0.000000000000000000e+00 7.956791148964079241e+00
7.952382367944350605e+00 -0.000000000000000000e+00 0.000000000000000000e+00 -0.000000000000000000e+00 7.953062776273715606e+00 0.000000000000000000e+00 0.000000000000000000e+00 0.000000000000000000e+00 7.953052770265313320e+00
7.953690340682265436e+00 -0.000000000000000000e+00 0.000000000000000000e+00 -0.000000000000000000e+00 7.954370860921986086e+00 0.000000000000000000e+00 0.000000000000000000e+00 0.000000000000000000e+00 7.954360853267592901e+00
7.956790240644308732e+00 -0.000000000000000000e+00 0.000000000000000000e+00 -0.000000000000000000e+00 7.957471026112501455e+00 0.000000000000000000e+00 0.000000000000000000e+00 0.000000000000000000e+00 7.957461014558131041e+00
7.959467892982934778e+00 -0.000000000000000000e+00 0.000000000000000000e+00 -0.000000000000000000e+00 7.960148907551809927e+00 0.000000000000000000e+00 0.000000000000000000e+00 0.000000000000000000e+00 7.960138892628458862e+00
7.962520244227682120e+00 -0.000000000000000000e+00 0.000000000000000000e+00 -0.000000000000000000e+00 7.963201519956053076e+00 0.000000000000000000e+00 0.000000000000000000e+00 0.000000000000000000e+00 7.963191501191724697e+00
7.967414217532498455e+00 -0.000000000000000000e+00 0.000000000000000000e+00 -0.000000000000000000e+00 7.968095911991459168e+00 0.000000000000000000e+00 0.000000000000000000e+00 0.000000000000000000e+00 7.968085887069165985e+00
7.973083281014661239e+00 -0.000000000000000000e+00 0.000000000000000000e+00 -0.000000000000000000e+00 7.973765460520830572e+00 0.000000000000000000e+00 0.000000000000000000e+00 0.000000000000000000e+00 7.973755428465578277e+00
7.976731446596721398e+00 -0.000000000000000000e+00 0.000000000000000000e+00 -0.000000000000000000e+00 7.977413938241094904e+00 0.000000000000000000e+00 0.000000000000000000e+00 0.000000000000000000e+00 7.977403901594867897e+00
7.977627538842544830e+00 -0.000000000000000000e+00 0.000000000000000000e+00 -0.000000000000000000e+00 7.978310107156476150e+00 0.000000000000000000e+00 0.000000000000000000e+00 0.000000000000000000e+00 7.978300069383256421e+00
7.977488717356643555e+00 -0.000000000000000000e+00 0.000000000000000000e+00 -0.000000000000000000e+00 7.978171273793643437e+00 0.000000000000000000e+00 0.000000000000000000e+00 0.000000000000000000e+00 7.978161236194421413e+00
7.978333629901072754e+00 -0.000000000000000000e+00 0.000000000000000000e+00 -0.000000000000000000e+00 7.979016258627655844e+00 0.000000000000000000e+00 0.000000000000000000e+00 0.000000000000000000e+00 7.979006219966441549e+00
7.980610700024570292e+00 -0.000000000000000000e+00 0.000000000000000000e+00 -0.000000000000000000e+00 7.981293523579033433e+00 0.000000000000000000e+00 0.000000000000000000e+00 0.000000000000000000e+00 7.981283482051835243e+00
7.982744204927473497e+00 -0.000000000000000000e+00 0.000000000000000000e+00 -0.000000000000000000e+00 7.983427211024885395e+00 0.000000000000000000e+00 0.000000000000000000e+00 0.000000000000000000e+00 7.983417166813702615e+00
7.984722600765231881e+00 -0.000000000000000000e+00 0.000000000000000000e+00 -0.000000000000000000e+00 7.985405776134668621e+00 0.000000000000000000e+00 0.000000000000000000e+00 0.000000000000000000e+00 7.985395729434500822e+00
7.988592314850992082e+00 -0.000000000000000000e+00 0.000000000000000000e+00 -0.000000000000000000e+00 7.989275821314523185e+00 0.000000000000000000e+00 0.000000000000000000e+00 0.000000000000000000e+00 7.989265769744382517e+00
7.994325930351575238e+00 -0.000000000000000000e+00 0.000000000000000000e+00 -0.000000000000000000e+00 7.995009927385281934e+00 0.000000000000000000e+00 0.000000000000000000e+00 0.000000000000000000e+00 7.994999868601182946e+00
7.998621106698246663e+00 -0.000000000000000000e+00 0.000000000000000000e+00 -0.000000000000000000e+00 7.999305471228837838e+00 0.000000000000000000e+00 0.000000000000000000e+00 0.000000000000000000e+00 7.999295407040770023e+00
7.999082784875687580e+00 -0.000000000000000000e+00 0.000000000000000000e+00 -0.000000000000000000e+00 7.999767188907052073e+00 0.000000000000000000e+00 0.000000000000000000e+00 0.000000000000000000e+00 7.999757124137987674e+00
7.997435718630696577e+00 -0.000000000000000000e+00 0.000000000000000000e+00 -0.000000000000000000e+00 7.998119981737872308e+00 0.000000000000000000e+00 0.000000000000000000e+00 0.000000000000000000e+00 7.998109919041796800e+00
7.993905915521306582e+00 -0.000000000000000000e+00 0.000000000000000000e+00 -0.000000000000000000e+00 7.994589876618220181e+00 0.000000000000000000e+00 0.000000000000000000e+00 0.000000000000000000e+00 7.994579818363119372e+00
7.985814195587683351e+00 -0.000000000000000000e+00 0.000000000000000000e+00 -0.000000000000000000e+00 7.986497464354582299e+00 0.000000000000000000e+00 0.000000000000000000e+00 0.000000000000000000e+00 7.986487416281422114e+00
7.973121998684790768e+00 -0.000000000000000000e+00 0.000000000000000000e+00 -0.000000000000000000e+00 7.973804181502941013e+00 0.000000000000000000e+00 0.000000000000000000e+00 0.000000000000000000e+00 7.973794149398687914e+00
7.959351355947757334e+00 -0.000000000000000000e+00 0.000000000000000000e+00 -0.000000000000000000e+00 7.960032360545689301e+00 0.000000000000000000e+00 0.000000000000000000e+00 0.000000000000000000e+00 7.960022345768337004e+00
7.951174000348077975e+00 -0.000000000000000000e+00 0.000000000000000000e+00 -0.000000000000000000e+00 7.951854305289038471e+00 0.000000000000000000e+00 0.000000000000000000e+00 0.000000000000000000e+00 7.951844300800626542e+00
7.953107010804088439e+00 -0.000000000000000000e+00 0.000000000000000000e+00 -0.000000000000000000e+00 7.953787481134096282e+00 0.000000000000000000e+00 0.000000000000000000e+00 0.000000000000000000e+00 7.953777474213699072e+00
7.962886726590099329e+00 -0.000000000000000000e+00 0.000000000000000000e+00 -0.000000000000000000e+00 7.963568033676290625e+00 0.000000000000000000e+00 0.000000000000000000e+00 0.000000000000000000e+00 7.963558014449964695e+00
7.975445981220246949e+00 -0.000000000000000000e+00 0.000000000000000000e+00 -0.000000000000000000e+00 7.976128362879252975e+00 0.000000000000000000e+00 0.000000000000000000e+00 0.000000000000000000e+00 7.976118327851017931e+00
7.988445369123855500e+00 -0.000000000000000000e+00 0.000000000000000000e+00 -0.000000000000000000e+00 7.989128863015459991e+00 0.000000000000000000e+00 0.000000000000000000e+00 0.000000000000000000e+00 7.989118811630318007e+00
8.002443667675434469e+00 -0.000000000000000000e+00 0.000000000000000000e+00 -0.000000000000000000e+00 8.003128359265142322e+00 0.000000000000000000e+00 0.000000000000000000e+00 0.000000000000000000e+00 8.003118290268103507e+00
8.017588939640688750e+00 -0.000000000000000000e+00 0.000000000000000000e+00 -0.000000000000000000e+00 8.018274927063938406e+00 0.000000000000000000e+00 0.000000000000000000e+00 0.000000000000000000e+00 8.018264839010008416e+00
8.029769946345144405e+00 -0.000000000000000000e+00 0.000000000000000000e+00 -0.000000000000000000e+00 8.030456975980394319e+00 0.000000000000000000e+00 0.000000000000000000e+00 0.000000000000000000e+00 8.030446872599554808e+00
8.033946823326783004e+00 -0.000000000000000000e+00 0.000000000000000000e+00 -0.000000000000000000e+00 8.034634210335976690e+00 0.000000000000000000e+00 0.000000000000000000e+00 0.000000000000000000e+00 8.034624101700165610e+00
8.027139842868812991e+00 -0.000000000000000000e+00 0.000000000000000000e+00 -0.000000000000000000e+00 8.027826647471359323e+00 0.000000000000000000e+00 0.000000000000000000e+00 0.000000000000000000e+00 8.027816547399497793e+00
8.010183417432104491e+00 -0.000000000000000000e+00 0.000000000000000000e+00 -0.000000000000000000e+00 8.010868771238000008e+00 0.000000000000000000e+00 0.000000000000000000e+00 0.000000000000000000e+00 8.010858692501017231e+00
7.987401108372935710e+00 -0.000000000000000000e+00 0.000000000000000000e+00 -0.000000000000000000e+00 7.988084512917052571e+00 0.000000000000000000e+00 0.000000000000000000e+00 0.000000000000000000e+00 7.988074462845903945e+00
7.964651347230411460e+00 -0.000000000000000000e+00 0.000000000000000000e+00 -0.000000000000000000e+00 7.965332805297733465e+00 0.000000000000000000e+00 0.000000000000000000e+00 0.000000000000000000e+00 7.965322783851419786e+00
7.945431778363038156e+00 -0.000000000000000000e+00 0.000000000000000000e+00 -0.000000000000000000e+00 7.946111591997826018e+00 0.000000000000000000e+00 0.000000000000000000e+00 0.000000000000000000e+00 7.946101594734372497e+00
7.932339401944698665e+00 -0.000000000000000000e+00 0.000000000000000000e+00 -0.000000000000000000e+00 7.933018095390934832e+00 0.000000000000000000e+00 0.000000000000000000e+00 0.000000000000000000e+00 7.933008114601387106e+00
7.927992146636809956e+00 -0.000000000000000000e+00 0.000000000000000000e+00 -0.000000000000000000e+00 7.928670468131186588e+00 0.000000000000000000e+00 0.000000000000000000e+00 0.000000000000000000e+00 7.928660492810607252e+00
7.933905034315447580e+00 -0.000000000000000000e+00 0.000000000000000000e+00 -0.000000000000000000e+00 7.934583861718912168e+00 0.000000000000000000e+00 0.000000000000000000e+00 0.000000000000000000e+00 7.934573878958375737e+00
7.949364265740455515e+00 -0.000000000000000000e+00 0.000000000000000000e+00 -0.000000000000000000e+00 7.950044415840307188e+00 0.000000000000000000e+00 0.000000000000000000e+00 0.000000000000000000e+00 7.950034413628882746e+00
7.972285657999020003e+00 -0.000000000000000000e+00 0.000000000000000000e+00 -0.000000000000000000e+00 7.972967769259581949e+00 0.000000000000000000e+00 0.000000000000000000e+00 0.000000000000000000e+00 7.972957738208322986e+00
7.996517745871824623e+00 -0.000000000000000000e+00 0.000000000000000000e+00 -0.000000000000000000e+00 7.997201930437451978e+00 0.000000000000000000e+00 0.000000000000000000e+00 0.000000000000000000e+00 7.997191868895369815e+00
8.014243261379419891e+00 -0.000000000000000000e+00 0.000000000000000000e+00 -0.000000000000000000e+00 8.014928962545317503e+00 0.000000000000000000e+00 0.000000000000000000e+00 0.000000000000000000e+00 8.014918878701363880e+00
8.020735306251253860e+00 -0.000000000000000000e+00 0.000000000000000000e+00 -0.000000000000000000e+00 8.021421562878954248e+00 0.000000000000000000e+00 0.000000000000000000e+00 0.000000000000000000e+00 8.021411470866047111e+00
8.015756796170057541e+00 -0.000000000000000000e+00 0.000000000000000000e+00 -0.000000000000000000e+00 8.016442626835209140e+00 0.000000000000000000e+00 0.000000000000000000e+00 0.000000000000000000e+00 8.016432541086265573e+00
8.001465925978608951e+00 -0.000000000000000000e+00 0.000000000000000000e+00 -0.000000000000000000e+00 8.002150533911800423e+00 0.000000000000000000e+00 0.000000000000000000e+00 0.000000000000000000e+00 8.002140466144753717e+00
7.981070925065377075e+00 -0.000000000000000000e+00 0.000000000000000000e+00 -0.000000000000000000e+00 7.981753787996612282e+00 0.000000000000000000e+00 0.000000000000000000e+00 0.000000000000000000e+00 7.981743745891416886e+00
7.958703725067715951e+00 -0.000000000000000000e+00 0.000000000000000000e+00 -0.000000000000000000e+00 7.959384674253966452e+00 0.000000000000000000e+00 0.000000000000000000e+00 0.000000000000000000e+00 7.959374660291610226e+00
7.938980772670968022e+00 -0.000000000000000000e+00 0.000000000000000000e+00 -0.000000000000000000e+00 7.939660034354933948e+00 0.000000000000000000e+00 0.000000000000000000e+00 0.000000000000000000e+00 7.939650045208433760e+00
7.925825299623832976e+00 -0.000000000000000000e+00 0.000000000000000000e+00 -0.000000000000000000e+00 7.926503435722277224e+00 0.000000000000000000e+00 0.000000000000000000e+00 0.000000000000000000e+00 7.926493463128682748e+00
7.921684295983697055e+00 -0.000000000000000000e+00 0.000000000000000000e+00 -0.000000000000000000e+00 7.922362077776180733e+00 0.000000000000000000e+00 0.000000000000000000e+00 0.000000000000000000e+00 7.922352110392556490e+00
7.927369152265952401e+00 -0.000000000000000000e+00 0.000000000000000000e+00 -0.000000000000000000e+00 7.928047420455636818e+00 0.000000000000000000e+00 0.000000000000000000e+00 0.000000000000000000e+00 7.928037445920052662e+00
7.942002070804466740e+00 -0.000000000000000000e+00 0.000000000000000000e+00 -0.000000000000000000e+00 7.942681590991943708e+00 0.000000000000000000e+00 0.000000000000000000e+00 0.000000000000000000e+00 7.942671598044466208e+00
7.962320892617210433e+00 -0.000000000000000000e+00 0.000000000000000000e+00 -0.000000000000000000e+00 7.963002151289679809e+00 0.000000000000000000e+00 0.000000000000000000e+00 0.000000000000000000e+00 7.962992132775349674e+00
7.983074294931376436e+00 -0.000000000000000000e+00 0.000000000000000000e+00 -0.000000000000000000e+00 7.983757329271624847e+00 0.000000000000000000e+00 0.000000000000000000e+00 0.000000000000000000e+00 7.983747284645445141e+00
7.999450222709604930e+00 -0.000000000000000000e+00 0.000000000000000000e+00 -0.000000000000000000e+00 8.000134658179788971e+00 0.000000000000000000e+00 0.000000000000000000e+00 0.000000000000000000e+00 8.000124592948726132e+00
8.008531057094588235e+00 -0.000000000000000000e+00 0.000000000000000000e+00 -0.000000000000000000e+00 8.009216269523300014e+00 0.000000000000000000e+00 0.000000000000000000e+00 0.000000000000000000e+00 8.009206192866303198e+00
8.008917383783774824e+00 -0.000000000000000000e+00 0.000000000000000000e+00 -0.000000000000000000e+00 8.009602629266295182e+00 0.000000000000000000e+00 0.000000000000000000e+00 0.000000000000000000e+00 8.009592552123301346e+00
8.001856663200408448e+00 -0.000000000000000000e+00 0.000000000000000000e+00 -0.000000000000000000e+00 8.002541304565408353e+00 0.000000000000000000e+00 0.000000000000000000e+00 0.000000000000000000e+00 8.002531236306362317e+00
7.989628709646191318e+00 -0.000000000000000000e+00 0.000000000000000000e+00 -0.000000000000000000e+00 7.990312304784212394e+00 0.000000000000000000e+00 0.000000000000000000e+00 0.000000000000000000e+00 7.990302251910079256e+00
7.975247053177337619e+00 -0.000000000000000000e+00 0.000000000000000000e+00 -0.000000000000000000e+00 7.975929417816439937e+00 0.000000000000000000e+00 0.000000000000000000e+00 0.000000000000000000e+00 7.975919383038204025e+00
7.962844796658460567e+00 -0.000000000000000000e+00 0.000000000000000000e+00 -0.000000000000000000e+00 7.963526100155672083e+00 0.000000000000000000e+00 0.000000000000000000e+00 0.000000000000000000e+00 7.963516080983345624e+00
7.954863505748174468e+00 -0.000000000000000000e+00 0.000000000000000000e+00 -0.000000000000000000e+00 7.955544126364316959e+00 0.000000000000000000e+00 0.000000000000000000e+00 0.000000000000000000e+00 7.955534117232932800e+00
7.951185918013477405e+00 -0.000000000000000000e+00 0.000000000000000000e+00 -0.000000000000000000e+00 7.951866223974430881e+00 0.000000000000000000e+00 0.000000000000000000e+00 0.000000000000000000e+00 7.951856219471019394e+00
7.952806725494620643e+00 -0.000000000000000000e+00 0.000000000000000000e+00 -0.000000000000000000e+00 7.953487170131776196e+00 0.000000000000000000e+00 0.000000000000000000e+00 0.000000000000000000e+00 7.953477163589377064e+00
7.961917891109007606e+00 -0.000000000000000000e+00 0.000000000000000000e+00 -0.000000000000000000e+00 7.962599115300675656e+00 0.000000000000000000e+00 0.000000000000000000e+00 0.000000000000000000e+00 7.962589097294342722e+00
7.978818702438847943e+00 -0.000000000000000000e+00 0.000000000000000000e+00 -0.000000000000000000e+00 7.979501372669193238e+00 0.000000000000000000e+00 0.000000000000000000e+00 0.000000000000000000e+00 7.979491333396981467e+00
7.998544098478528319e+00 -0.000000000000000000e+00 0.000000000000000000e+00 -0.000000000000000000e+00 7.999228456420159006e+00 0.000000000000000000e+00 0.000000000000000000e+00 0.000000000000000000e+00 7.999218392329090044e+00
8.013915958811471896e+00 -0.000000000000000000e+00 0.000000000000000000e+00 -0.000000000000000000e+00 8.014601631974532125e+00 0.000000000000000000e+00 0.000000000000000000e+00 0.000000000000000000e+00 8.014591548541574184e+00
8.019964484548335548e+00 -0.000000000000000000e+00 0.000000000000000000e+00 -0.000000000000000000e+00 8.020650675224416659e+00 0.000000000000000000e+00 0.000000000000000000e+00 0.000000000000000000e+00 8.020640584181503385e+00
8.017565328439600236e+00 -0.000000000000000000e+00 0.000000000000000000e+00 -0.000000000000000000e+00 8.018251313842862160e+00 0.000000000000000000e+00 0.000000000000000000e+00 0.000000000000000000e+00 8.018241225817931195e+00
8.010549687330744462e+00 -0.000000000000000000e+00 0.000000000000000000e+00 -0.000000000000000000e+00 8.011235072474459429e+00 0.000000000000000000e+00 0.000000000000000000e+00 0.000000000000000000e+00 8.011224993277480166e+00
8.000749786520923834e+00 -0.000000000000000000e+00 0.000000000000000000e+00 -0.000000000000000000e+00 8.001434333181467906e+00 0.000000000000000000e+00 0.000000000000000000e+00 0.000000000000000000e+00 8.001424266315416034e+00
7.987660211898456986e+00 -0.000000000000000000e+00 0.000000000000000000e+00 -0.000000000000000000e+00 7.988343638610447606e+00 0.000000000000000000e+00 0.000000000000000000e+00 0.000000000000000000e+00 7.988333588214301173e+00
7.972216213083766156e+00 -0.000000000000000000e+00 0.000000000000000000e+00 -0.000000000000000000e+00 7.972898318403361273e+00 0.000000000000000000e+00 0.000000000000000000e+00 0.000000000000000000e+00 7.972888287439102939e+00
7.957409067337154696e+00 -0.000000000000000000e+00 0.000000000000000000e+00 -0.000000000000000000e+00 7.958089905752045112e+00 0.000000000000000000e+00 0.000000000000000000e+00 0.000000000000000000e+00 7.958079893418678274e+00
7.947612009859968296e+00 -0.000000000000000000e+00 0.000000000000000000e+00 -0.000000000000000000e+00 7.948292010035682864e+00 0.000000000000000000e+00 0.000000000000000000e+00 0.000000000000000000e+00 7.948282010029245725e+00
7.944364695551486832e+00 -0.000000000000000000e+00 0.000000000000000000e+00 -0.000000000000000000e+00 7.945044417886800936e+00 0.000000000000000000e+00 0.000000000000000000e+00 0.000000000000000000e+00 7.945034421966340688e+00
7.946764492989530915e+00 -0.000000000000000000e+00 0.000000000000000000e+00 -0.000000000000000000e+00 7.947444420650662700e+00 0.000000000000000000e+00 0.000000000000000000e+00 0.000000000000000000e+00 7.947434421711219166e+00
7.953899533832086810e+00 -0.000000000000000000e+00 0.000000000000000000e+00 -0.000000000000000000e+00 7.954580071969704846e+00 0.000000000000000000e+00 0.000000000000000000e+00 0.000000000000000000e+00 7.954570064052313150e+00
7.964808640420984354e+00 -0.000000000000000000e+00 0.000000000000000000e+00 -0.000000000000000000e+00 7.965490111946229135e+00 0.000000000000000000e+00 0.000000000000000000e+00 0.000000000000000000e+00 7.965480090301916505e+00
7.977746251812197542e+00 -0.000000000000000000e+00 0.000000000000000000e+00 -0.000000000000000000e+00 7.978428830283069928e+00 0.000000000000000000e+00 0.000000000000000000e+00 0.000000000000000000e+00 7.978418792360851164e+00
7.988473008694754185e+00 -0.000000000000000000e+00 0.000000000000000000e+00 -0.000000000000000000e+00 7.989156504950344129e+00 0.000000000000000000e+00 0.000000000000000000e+00 0.000000000000000000e+00 7.989146453531202674e+00
7.993982128444602431e+00 -0.000000000000000000e+00 0.000000000000000000e+00 -0.000000000000000000e+00 7.994666096062478466e+00 0.000000000000000000e+00 0.000000000000000000e+00 0.000000000000000000e+00 7.994656037711378005e+00