1.573744870899999870e-02 7.946821826577999737e+00 3.990823991921999880e+00 3.982043354557999848e+00 7.939254509176000063e+00 2.576342611199999855e-02 3.933247405259999940e+00 3.986417929597999787e+00 7.946266772456000105e+00 4.015885106989999898e+00 3.930941662599999997e+00 3.982880694323000181e+00 1.623408535200000086e-02 3.876331729899999690e-02 7.926588652886000119e+00 1.205192520999999982e-03 3.968180985387999904e+00 1.006145014700000027e-02 7.914768218140999956e+00 3.969198942542000008e+00 3.979496240290000042e+00 4.002542010083000257e+00 2.404844962799999875e-02 3.937122849744000064e+00 2.002976753498999951e+00 1.994871671961000015e+00 1.990372046867999956e+00 1.979632557209000110e+00 1.979110637525999916e+00 5.979311673270999883e+00 1.975268442499999999e+00 5.986765554756999563e+00 1.987219955477999900e+00 1.985177380574000061e+00 5.948201874815000068e+00 5.954019738136000051e+00 5.965331715298000326e+00 1.977753122920000051e+00 1.975944490947000087e+00 5.971797701126999591e+00 1.999715471915000098e+00 5.962013756942000420e+00 5.963373057293999580e+00 5.956393228216000146e+00 1.967760419618000078e+00 5.968292380034999844e+00 5.957746946351999640e+00 5.983777327123999790e+00 1.960721947129000053e+00 2.056968221577999856e+00 1.814743017000000104e-03 7.925964706874999877e+00 1.992040933049999962e+00 2.008264923173999961e+00 1.984240373075000008e+00 7.445128369000000336e-03 1.960707345070999974e+00 2.005995815388999848e+00 2.032793729414999806e+00 3.935435195471999936e+00 9.823906465999999310e-03 1.966494393837999954e+00 5.967036323475999993e+00 2.006628421954999908e+00 3.539408874000000288e-02 5.950523134792000235e+00 1.948690217455000040e+00 5.977776372469000066e+00 7.921674571111999796e+00 3.524317013500000151e-02 5.977306339297999926e+00 1.987469233789999956e+00 1.968691066374000043e+00 4.006503753886000219e+00 1.986373227377999928e+00 1.999305631519999960e+00 5.953495028138999778e+00 4.015366128723999672e+00 1.214565940000000063e-03 5.979767365523000144e+00 5.969102245958000097e+00 1.908610133919000029e+00 4.036976236995999834e+00 5.936081589751999843e+00 6.007393930356999867e+00 1.942001326768000080e+00 3.487271537500000185e-02 3.947571587231000212e+00 1.973306583974999917e+00 1.948467583006000092e+00 5.936490725569999682e+00 7.935928263619000056e+00 2.035487874965999922e+00 5.895983001037000015e+00 1.989456027047000086e+00 4.029007348943999922e+00 4.016365475779999805e+00 1.952085206078999935e+00 6.003256903857000282e+00 5.941334336037000341e+00 7.930815867028999655e+00 5.935193067411000278e+00 5.997629023223000289e+00 5.918201314601000185e+00 7.933665925599999724e+00 3.983768132243000082e+00 5.961735038537000264e+00 2.005477012579000018e+00 5.959309231169999777e+00 3.992220294546999781e+00 1.968849988969000098e+00 5.965139836332999934e+00 5.942994058957999925e+00 3.960151405043999873e+00 3.995227452537999824e+00 5.993679082204000252e+00 5.962133610720999677e+00 5.989126455214999645e+00 3.997390685016999790e+00 6.007840161705000348e+00
3.356630092199999749e-02 7.939867102024999568e+00 4.009425701560999755e+00 3.990168790074999805e+00 7.923266066436999822e+00 5.511426525000000243e-02 3.881371610652000204e+00 4.000694725319999812e+00 7.939873748774999740e+00 4.064208406299999687e+00 3.879365290237000163e+00 3.991303454589000044e+00 3.703914646099999708e-02 8.537843394300000111e-02 7.894289908218000029e+00 3.923968285999999625e-03 3.960872859118000022e+00 2.280155496899999995e-02 7.871162289995999650e+00 3.963590976143000155e+00 3.983644891003999877e+00 4.039218957764999729e+00 5.094410002699999857e-02 3.891789033584999835e+00 2.029064330744000166e+00 2.007283902216999927e+00 1.995378512358999989e+00 1.980142286103999893e+00 1.965938305125999985e+00 5.998700715892000268e+00 1.969206773672999899e+00 6.011362616141999737e+00 1.985681674168999988e+00 1.990545331874000068e+00 5.928869015920000152e+00 5.942641631944000302e+00 5.962759853806000265e+00 1.964824062958999917e+00 1.959676378166999910e+00 5.971261154213999944e+00 2.011092661288000016e+00 5.959457325316999565e+00 5.953177440895999872e+00 5.946445200353999816e+00 1.948707942411999960e+00 5.966142582198999733e+00 5.954896749560999680e+00 6.002712487838000044e+00 1.949949474060999943e+00 2.140734071355999912e+00 7.938897499502999722e+00 7.891090970507000257e+00 1.990787930922000015e+00 2.044796474497000194e+00 1.987833834251000020e+00 2.833496829199999914e-02 1.928942321212999911e+00 2.037722455916000097e+00 2.084899577488000144e+00 3.912956161798999855e+00 2.730155972200000100e-02 1.937466806211999959e+00 5.963945343107999619e+00 2.035658303981000117e+00 1.030231740869999996e-01 5.933772263636999611e+00 1.938675357893999918e+00 6.000972971068000206e+00 7.913808599802999666e+00 5.803911377200000193e-02 6.002737304823999587e+00 1.992939958066999973e+00 1.973653232204999997e+00 4.033928198222000105e+00 1.980793595378999905e+00 2.023265769548999948e+00 5.957142153149000308e+00 4.021030877133999759e+00 7.952660497243000393e+00 6.016421112351999945e+00 5.967518996981000079e+00 1.852027472250000084e+00 4.057780069489999697e+00 5.904987487507000310e+00 6.032465076651000402e+00 1.886186725174000101e+00 7.362472310999999825e-02 3.930281982204999913e+00 1.965832166413999937e+00 1.895873217362000096e+00 5.895607699326999906e+00 7.935557968659000316e+00 2.090182185291999950e+00 5.814194580259999690e+00 1.995712051344999960e+00 4.067776115612000254e+00 4.031744497122000226e+00 1.934490640878000045e+00 6.064846165488999574e+00 5.916901441447000032e+00 7.926202008507999608e+00 5.910146225003000353e+00 6.012380575551000028e+00 5.873800474047000009e+00 7.941187904021999699e+00 3.989926634100999792e+00 5.956366874946000145e+00 2.010567505512999897e+00 5.927379103882000067e+00 3.983072453939000113e+00 1.948394321247999939e+00 5.967478632728999699e+00 5.908648142682999982e+00 3.935468014812999904e+00 4.007688897603999933e+00 6.015240821388999848e+00 5.972314955385000346e+00 5.995522243197999757e+00 3.984425050500000065e+00 6.060205174352000235e+00
4.560905785600000151e-02 7.935854505487999866e+00 4.026492016510999861e+00 3.998986190804000085e+00 7.911644409923000332e+00 7.569646065599999751e-02 3.837931862677999906e+00 4.016890206775999950e+00 7.938325260895999769e+00 4.103651924519000183e+00 3.844565992511999930e+00 3.999005016286000025e+00 5.748568506699999747e-02 1.255848415770000059e-01 7.866317615143000097e+00 9.185754432999999539e-03 3.958758801660000159e+00 3.552697726699999975e-02 7.837716008073999596e+00 3.963745954065999832e+00 3.986874488009000128e+00 4.080534628558000421e+00 6.983412611500000589e-02 3.857529274416000131e+00 2.048214488824000146e+00 2.027379651872999844e+00 2.005933663071000073e+00 1.984917241795999931e+00 1.954553753616999900e+00 6.018005232398000004e+00 1.964252986878999963e+00 6.027865860412999766e+00 1.983972560748999969e+00 1.993607466850999987e+00 5.911824655432000419e+00 5.935245861771999643e+00 5.972502488168999868e+00 1.952510449845999974e+00 1.944375256927999951e+00 5.968899186312000005e+00 2.013984756104000073e+00 5.958049937095999837e+00 5.943838426533000430e+00 5.938215527021999840e+00 1.947040061380999942e+00 5.969051597390000019e+00 5.965498135189999829e+00 6.008580657456000118e+00 1.920803540079000005e+00 2.209362827770000148e+00 7.915612775979999682e+00 7.874483115686000012e+00 1.993044483442999892e+00 2.087826835477000209e+00 1.989478751470000084e+00 6.697078808699999386e-02 1.904794172334000057e+00 2.068122996186000151e+00 2.123034610932000188e+00 3.930210977233000058e+00 2.569152703199999860e-02 1.921962460265000061e+00 5.961073568833000103e+00 2.055981109571999976e+00 1.397396606669999986e-01 5.920477868607999739e+00 1.946823827573000099e+00 6.035500199882999794e+00 7.938610861385000383e+00 3.414696181900000321e-02 6.029811965664999995e+00 1.996108875565999918e+00 1.973014055343000006e+00 4.043864649708999615e+00 1.968397123993000042e+00 2.047216013604999940e+00 5.998797797947999833e+00 3.969835298716000160e+00 7.951978796480999812e+00 6.068933356758999587e+00 5.966766146834999951e+00 1.826067538118000044e+00 4.023873774494999722e+00 5.885416521775000298e+00 6.059598113049999846e+00 1.835038369027000016e+00 7.549626248599999867e-02 3.938294438164999800e+00 1.966197797806999992e+00 1.858223934661999976e+00 5.862105241763000407e+00 7.953299583735000233e+00 2.131538512824000087e+00 5.767153895643000183e+00 2.008851624374000000e+00 4.062125584122999733e+00 3.998508453952999808e+00 1.959735367483000035e+00 6.131225948784999602e+00 5.919871578785000032e+00 7.935896779301000237e+00 5.913851254945000413e+00 6.032664338086999756e+00 5.862564636563000420e+00 2.257680629199999844e-02 3.989416063618000052e+00 5.966542934671999809e+00 1.997488127595999918e+00 5.908822693452999708e+00 3.939045948645000017e+00 1.938099340965999895e+00 5.989221406937000225e+00 5.858844346925000224e+00 3.931722313064000218e+00 3.995453901792000106e+00 6.018187617655000210e+00 5.991259901762999718e+00 6.014311317825000280e+00 3.930130072198000146e+00 6.104504715503000334e+00
5.108769546900000097e-02 7.936529913420000248e+00 4.038503141895000148e+00 4.007340851640000423e+00 7.905689441325000288e+00 8.572736860099999801e-02 3.806530677236999782e+00 4.032833464960000391e+00 7.941728321387000022e+00 4.128370852367000410e+00 3.830665518635000044e+00 4.004376879055000060e+00 7.714105395600000248e-02 1.588343452869999950e-01 7.844034788397999947e+00 1.596920235799999949e-02 3.958862133216999979e+00 4.857469069400000006e-02 7.814564561381000196e+00 3.965381189703999887e+00 3.987075763085000002e+00 4.122143924578000274e+00 8.127631156700000636e-02 3.834866079879000189e+00 2.059689725759000112e+00 2.054018466106000140e+00 2.023343075229000032e+00 1.994233729552999934e+00 1.949287384293000081e+00 6.034755506076000309e+00 1.957740613572999999e+00 6.036434955997999730e+00 1.981246921184000032e+00 1.992871303573999997e+00 5.894518838988999754e+00 5.930467807231999622e+00 5.994869694898000034e+00 1.940833773715000099e+00 1.930581287424000037e+00 5.964651011832000194e+00 2.007883457215000167e+00 5.956739668378999930e+00 5.935619981322999728e+00 5.930743292965999558e+00 1.963480582344999892e+00 5.976834896749999793e+00 5.988109311008000368e+00 6.001066676660999910e+00 1.866760200080000098e+00 2.251258540100999905e+00 7.924615202636999811e+00 7.897942124587999935e+00 1.999615843985000030e+00 2.134646620794999894e+00 1.984955669574999915e+00 1.036729902530000025e-01 1.889063066499000021e+00 2.095597332006999824e+00 2.138734952461000205e+00 3.952073093242999935e+00 7.942746022628999647e+00 1.916129585445000005e+00 5.951933029247999940e+00 2.063840579933999830e+00 6.972301231600000482e-02 5.911613758848999645e+00 1.967548756503000096e+00 6.071035554796999634e+00 7.941144819605000293e+00 7.945664790823999901e+00 6.053345714818999745e+00 1.997051982851999918e+00 1.963018765124999954e+00 4.054060934128999705e+00 1.950838928207000000e+00 2.066067146990000047e+00 6.070538422935999989e+00 3.928241897493999879e+00 7.959223120318999811e+00 6.121631500976000062e+00 5.968361243452999787e+00 1.829403033583999916e+00 4.031699633407000327e+00 5.872672173195000234e+00 6.089160272446999755e+00 1.785789688973999922e+00 2.920946099399999996e-02 3.943741868586999821e+00 1.978885943597000097e+00 1.836651181638000008e+00 5.836992445975000443e+00 7.945931622470999933e+00 2.159085114004999806e+00 5.759249363370000374e+00 2.016139512700999781e+00 4.042242335622000304e+00 3.958952563685000037e+00 2.022366542917000132e+00 6.190641713077999597e+00 5.937552009722000257e+00 7.910533054803000397e+00 5.941127525211999938e+00 6.053174899834999678e+00 5.883622703068000170e+00 3.110782739400000038e-02 3.983701805814999997e+00 5.989270940699999990e+00 1.968602962790999999e+00 5.903147748164999875e+00 3.909714226206999932e+00 1.937567065959000079e+00 6.022543421258999885e+00 5.794646919667999718e+00 3.986827939626000017e+00 3.970205583890999979e+00 5.994712281866999781e+00 6.014744231142000075e+00 6.041985826958000239e+00 3.907934366256000214e+00 6.137433469215999970e+00
5.101678168099999661e-02 7.939749357865999890e+00 4.042247479649000219e+00 4.012492229104999808e+00 7.902017731513000243e+00 8.412602216700000579e-02 3.789362270320999926e+00 4.047382614935999712e+00 7.947061889012999814e+00 4.134183156962000005e+00 3.838757434936999946e+00 4.006436530288000064e+00 9.617340848699999778e-02 1.807597750430000039e-01 7.824927994974999912e+00 2.093880175400000127e-02 3.960462576178000127e+00 6.010369620199999818e-02 7.797673567986000087e+00 3.964393587700000054e+00 3.984053811351000007e+00 4.154476046759000063e+00 8.435863979499999554e-02 3.822997823549000085e+00 2.063447101013000218e+00 2.080935546995999808e+00 2.046122551898000186e+00 2.004938268660999778e+00 1.939361064525999989e+00 6.046301278684000025e+00 1.946461302798000004e+00 6.039722894118000340e+00 1.975567488495999946e+00 1.988331127132000109e+00 5.883482376203000186e+00 5.926837302510000072e+00 6.027207355895000340e+00 1.928430061045999899e+00 1.915340218627000102e+00 5.960790871349000319e+00 1.999015682525999926e+00 5.953482505203999686e+00 5.928728532563999565e+00 5.921930285524999782e+00 1.988941555415000062e+00 5.987025447311999926e+00 6.013698646715999629e+00 5.983005398698000299e+00 1.787330817079999967e+00 2.255694423796999803e+00 7.946688243942999996e+00 7.931502037602999877e+00 2.010260189230999917e+00 2.174019934056000025e+00 1.970294917054000061e+00 1.245331649449999967e-01 1.880274433230000097e+00 2.117198160936000217e+00 2.129489369059999859e+00 3.973172139205999986e+00 7.893993227695999870e+00 1.911746607878000104e+00 5.927891521139000197e+00 2.056151077756999790e+00 2.131095690999999792e-03 5.914601972676000408e+00 1.986067044752999999e+00 6.091092369098999981e+00 7.920731593214999755e+00 7.906885588608999704e+00 6.065149299587999643e+00 1.998642935186000003e+00 1.940674912281999953e+00 4.079448981664000051e+00 1.936258787117999924e+00 2.074756964950000171e+00 6.147236824920000231e+00 3.911996832990999984e+00 1.059668828499999924e-02 6.149834458747999832e+00 5.971553853348999574e+00 1.847082007587999897e+00 4.051766161128999677e+00 5.859478962356000409e+00 6.116415372489999669e+00 1.737661862179000094e+00 7.960836834585999888e+00 3.945266634581999998e+00 2.005060753097999804e+00 1.829442426705000013e+00 5.824221825397000174e+00 7.913735172584000388e+00 2.175652151422999836e+00 5.780710333865999750e+00 2.000811336513999894e+00 4.025082947101999764e+00 3.922736148024000169e+00 2.098162378230000069e+00 6.225800916735999557e+00 5.941417858083999803e+00 7.874389286407000199e+00 5.970451249804000327e+00 6.062916184702999978e+00 5.926065443090999807e+00 2.723206052599999941e-02 3.974950880538000053e+00 6.011881904490000039e+00 1.936505059751999935e+00 5.907560955220000132e+00 3.908870726162999798e+00 1.942343015919000049e+00 6.049172879240000356e+00 5.725043789475000366e+00 4.071440111927000061e+00 3.955605660634000209e+00 5.942076862571999740e+00 6.031200103256000311e+00 6.067657124264999702e+00 3.916706488022999810e+00 6.154131935316000224e+00
4.690330199099999875e-02 7.943559534901999619e+00 4.036319138428000386e+00 4.012559540103000089e+00 7.897273496090000400e+00 7.138568657799999884e-02 3.787361272677999935e+00 4.061089115108000414e+00 7.952204194442000329e+00 4.121082173698000339e+00 3.866465745121999920e+00 4.006040307010000134e+00 1.152481539019999945e-01 1.858809678999999992e-01 7.807404935652000333e+00 2.080472277700000025e-02 3.966150930087999793e+00 6.672028309100000443e-02 7.784529256010999987e+00 3.958548833654000010e+00 3.980441184122999854e+00 4.168770359095000266e+00 7.828819034099999963e-02 3.820497402978999979e+00 2.061327072177999931e+00 2.100182816233000072e+00 2.070426564166000016e+00 2.013485511877000089e+00 1.919574291538999944e+00 6.053416402120999962e+00 1.930120150925999978e+00 6.043126650762999930e+00 1.966396900899000100e+00 1.981746972477999913e+00 5.884103239097999705e+00 5.923565053991000084e+00 6.065173326452000246e+00 1.914555206531999954e+00 1.898628094625999907e+00 5.961416347163000395e+00 1.997394127039000100e+00 5.946119878961000360e+00 5.923513754827999911e+00 5.911000413336999770e+00 2.009576173464000082e+00 5.996658102250999711e+00 6.029690186587999712e+00 5.964016547724000361e+00 1.695295874878000042e+00 2.219354911728999902e+00 7.948337698239000382e+00 7.933071583109000180e+00 2.025306033319000054e+00 2.198126564267000038e+00 1.946040109603000001e+00 1.371591675449999881e-01 1.877059364943999942e+00 2.128692290946000210e+00 2.099084151195000025e+00 3.994385328832999793e+00 7.871697243745000350e+00 1.902123939775999917e+00 5.886656894916000304e+00 2.039309869129999786e+00 4.614806853500000305e-02 5.935553162074000078e+00 1.989427328549000062e+00 6.086513509990999715e+00 7.911587744413999701e+00 7.898279772881999783e+00 6.059504457605999761e+00 2.007828271238000006e+00 1.906677778316000049e+00 4.108798109946000032e+00 1.934345185735999895e+00 2.071916247508000186e+00 6.205757665002000323e+00 3.900257171080999896e+00 3.397166830199999793e-02 6.142875530788000304e+00 5.974197109249000270e+00 1.860738780736000075e+00 4.016770218389999592e+00 5.841830929981999709e+00 6.135595800863000271e+00 1.694732960137999900e+00 2.044774786500000094e-02 3.950666257892000210e+00 2.042541751457000121e+00 1.834500939945999942e+00 5.828883506053999852e+00 7.895958825116999868e+00 2.186798344551999840e+00 5.811304093530999637e+00 1.958950540690000075e+00 4.015734061718999826e+00 3.894079858311000120e+00 2.158594883305999801e+00 6.229272659131999568e+00 5.910600768013999584e+00 7.895503675692999934e+00 5.980238840013000434e+00 6.054565020350000104e+00 5.975093849304999871e+00 5.654303008599999986e-02 3.963918660777999925e+00 6.020418845245999684e+00 1.919404154283999908e+00 5.922477821979000190e+00 3.911593367286000156e+00 1.948468938588999944e+00 6.057838215611000443e+00 5.663813064750000237e+00 4.109463526987999771e+00 3.967114501859000164e+00 5.871400520398999845e+00 6.028927887223000326e+00 6.081559226682999864e+00 3.903315467816999895e+00 6.155650796299999783e+00
3.944126848699999743e-02 7.949394192878999732e+00 4.020222097185000010e+00 4.007825109368000405e+00 7.892324610395999862e+00 5.094449365999999951e-02 3.800117633689000129e+00 4.072745774250999595e+00 7.957902000278999743e+00 4.091761355162000235e+00 3.907188485623000140e+00 4.004251207553999770e+00 1.343649979790000060e-01 1.741472427840000115e-01 7.793855186733999574e+00 1.510183613000000077e-02 3.976328917393999962e+00 6.695802655200000508e-02 7.776281948443999781e+00 3.944937863200999928e+00 3.978143146428999799e+00 4.162091403293000091e+00 6.608946316399999521e-02 3.824822622570999808e+00 2.057921448269000031e+00 2.106652166860000008e+00 2.092512313372000055e+00 2.016843936933999881e+00 1.901457877307000111e+00 6.060075080704000250e+00 1.909769266864000059e+00 6.051806015861999732e+00 1.955575999899000106e+00 1.976431604525999974e+00 5.887004193447999967e+00 5.918839012131999588e+00 6.101845185954999806e+00 1.899478112626999948e+00 1.886338348426999989e+00 5.969615645290000217e+00 2.006295517729999922e+00 5.931401683079999820e+00 5.919222437019000083e+00 5.898938654160000183e+00 2.016972151726000195e+00 6.002259495006000201e+00 6.032931790129000049e+00 5.953582417814000216e+00 1.612444837238000028e+00 2.153220011710999859e+00 7.938311981355999691e+00 7.914495948684000304e+00 2.046216004091999885e+00 2.211036992424999958e+00 1.917106190184000081e+00 1.499318546620000137e-01 1.877015779773000048e+00 2.126741094440999902e+00 2.054950845900000100e+00 3.989724907140999921e+00 7.869946987151999807e+00 1.885417329402000020e+00 5.836028831087999968e+00 2.025313093777000084e+00 1.177795123319999998e-01 5.970745198362999773e+00 1.974959663164000068e+00 6.062418491653000174e+00 7.907365226361999788e+00 7.923356633734999654e+00 6.037851025964999785e+00 2.028743808431999973e+00 1.865603800626000064e+00 4.115050754331999627e+00 1.948728160763000039e+00 2.061805229266000072e+00 6.235584695165999669e+00 3.910354014983000059e+00 4.687809785199999885e-02 6.110085620480999680e+00 5.975383410620000113e+00 1.859987762380999943e+00 3.997738048976000158e+00 5.820587414504999835e+00 6.148160492891999951e+00 1.663462348341999908e+00 7.601250273199999796e-02 3.940015062133999990e+00 2.085925613908000020e+00 1.850452279146000079e+00 5.851785366892999996e+00 7.903300651094999907e+00 2.200011938063000105e+00 5.829663313320000206e+00 1.907128190849999960e+00 4.030516644971999796e+00 3.899135320286999828e+00 2.185675376087000021e+00 6.208037074547999801e+00 5.846604680610999694e+00 7.937554789900000074e+00 5.963159992200999682e+00 6.032966132514999913e+00 6.018143051691000167e+00 9.872838795499999653e-02 3.953917479001999968e+00 6.009236837859999625e+00 1.930536789702999911e+00 5.947902025806000026e+00 3.913241774854999910e+00 1.953429040132000027e+00 6.051166224661000292e+00 5.630246827631999906e+00 4.082165329056000047e+00 4.001601425123999967e+00 5.808871562404999800e+00 6.004194474951000338e+00 6.083931389536999745e+00 3.881416445586999941e+00 6.153569543684000109e+00
2.867835187099999905e-02 7.959762569075000016e+00 3.995746177511000141e+00 4.000436442756000410e+00 7.891228612571000056e+00 2.721766971200000051e-02 3.827190257144000185e+00 4.080793506580000063e+00 6.074140569000000336e-03 4.050147098633999576e+00 3.954780142635000217e+00 4.001674819317999621e+00 1.520443213809999916e-01 1.479076240040000101e-01 7.788972798717000323e+00 5.868262947999999639e-03 3.990119558393999899e+00 6.178223936399999949e-02 7.776633402812000107e+00 3.924017623652999998e+00 3.977570805403999987e+00 4.137681174572000131e+00 5.097690069199999757e-02 3.835097637407999915e+00 2.056973096380999788e+00 2.101357136020999938e+00 2.109283027926000198e+00 2.014943503761999821e+00 1.903605072481999949e+00 6.071607039028999786e+00 1.887422872124000062e+00 6.067654646877000069e+00 1.946713223528999892e+00 1.975946171694000109e+00 5.884575870835999645e+00 5.910509775030000412e+00 6.129461337502999818e+00 1.884592389727000050e+00 1.888215097698999978e+00 5.986268579615999563e+00 2.022216430025999934e+00 5.908818641677999750e+00 5.914838615308999792e+00 5.887929278698999624e+00 2.012168090378999796e+00 6.001134037029999924e+00 6.028738221918000129e+00 5.951788914201999958e+00 1.561269838544000033e+00 2.081196751412000001e+00 7.926853253424000378e+00 7.917178909921999796e+00 2.073039479409000130e+00 2.224856243070000072e+00 1.889696334087000107e+00 1.462968670710000085e-01 1.875905691827999933e+00 2.111496149874999784e+00 2.004222546389999859e+00 3.963702784621999875e+00 7.886552977160000033e+00 1.866692395437999918e+00 5.790935043880000244e+00 2.023798450417999994e+00 7.010608762299999630e-02 6.011723582671000266e+00 1.951447116356999967e+00 6.031002565569999696e+00 7.896550580988000334e+00 2.851929108000000011e-03 6.010740282215000008e+00 2.056152840209000132e+00 1.827754432374999904e+00 4.092164744376000307e+00 1.975879022847000011e+00 2.051456488021000002e+00 6.238910895323999561e+00 3.961757148040999876e+00 2.508723336999999984e-02 6.071722739635999844e+00 5.977870974022000183e+00 1.844686387759000068e+00 4.052704060089999949e+00 5.800778063992000355e+00 6.160782350319999878e+00 1.646043977326000052e+00 7.577252970299999668e-02 3.909785935473999885e+00 2.127347310195999874e+00 1.871505764391000026e+00 5.888803768030999919e+00 7.917872063759999968e+00 2.218484503167000188e+00 5.823238642389999775e+00 1.873169624725000038e+00 4.067118832475999923e+00 3.931010496282000055e+00 2.176411145598000196e+00 6.175531909824999666e+00 5.769019679930000422e+00 7.913077393881000177e+00 5.927830343845999828e+00 6.013155455177000341e+00 6.049841434271000296e+00 1.048928445659999958e-01 3.952160063646000143e+00 5.984638206169000441e+00 1.972153018803000091e+00 5.981242702752999740e+00 3.926945420821000177e+00 1.953116833226999915e+00 6.040388408129000020e+00 5.644422735203000308e+00 4.040601832409000060e+00 4.045257261353000011e+00 5.777751251235000218e+00 5.968467885355999591e+00 6.085750895841999686e+00 3.902950062598999903e+00 6.161213124899999727e+00
1.578654986999999954e-02 1.373356483600000032e-02 3.967985175722000157e+00 3.992314573880999973e+00 7.895473530453999800e+00 2.262567684999999915e-03 3.867840640600999969e+00 4.085508650009000320e+00 2.279099640599999838e-02 4.000176370170000162e+00 4.006486053205000175e+00 3.998127873062999882e+00 1.659153820460000095e-01 1.054694895959999990e-01 7.792898995163000109e+00 7.952651780070000065e+00 4.008562368785000274e+00 5.218443206199999823e-02 7.788183877284000189e+00 3.902950366882000033e+00 3.978511933975999781e+00 4.100073246610000055e+00 3.134019889300000000e-02 3.854299835376000072e+00 2.057850184158999785e+00 2.090668110330999863e+00 2.118383201914999958e+00 2.010386247706000162e+00 1.916034333130000045e+00 6.088242781518999891e+00 1.867211723852000071e+00 6.088087364907000421e+00 1.941218316347000039e+00 1.981071050311000059e+00 5.886853492342000393e+00 5.897771110155000329e+00 6.144532486199000054e+00 1.870821549416999963e+00 1.902094696158000087e+00 6.010179308008000376e+00 2.041967119295999833e+00 5.886727052544999950e+00 5.908711298859000038e+00 5.878665363314000025e+00 2.000365020474999866e+00 5.993743966805999968e+00 6.020670569124000338e+00 5.954283153289999575e+00 1.558202362098999982e+00 2.029139374995000189e+00 7.905401926584000094e+00 7.932943159452999993e+00 2.098385591065000000e+00 2.243948385997999839e+00 1.870215820455999989e+00 1.050798615820000004e-01 1.870216151218000000e+00 2.089407325998999809e+00 1.951367382314999954e+00 3.967055735674000161e+00 7.928614512871000386e+00 1.856234130835000107e+00 5.758800811626000105e+00 2.038768991237999817e+00 7.946646298360000138e+00 6.057160246860999742e+00 1.931511390914999904e+00 5.996595592362999660e+00 7.915574457125999608e+00 2.543851568700000038e-02 5.991213056657000102e+00 2.081134674833999831e+00 1.806925146885999922e+00 4.052187059283999915e+00 2.009077560524000106e+00 2.044263532043999909e+00 6.221135742710999672e+00 4.015812418317000088e+00 7.935741245534000399e+00 6.042316527258999592e+00 5.984809672379999945e+00 1.821291975825999998e+00 4.071218273640999641e+00 5.788791616103000415e+00 6.177535416769000420e+00 1.647251708001999937e+00 2.466471212100000004e-02 3.902872009216999949e+00 2.153292547586000083e+00 1.885828045298000077e+00 5.934771176701000073e+00 7.939133032562000203e+00 2.236032343967000013e+00 5.792955530969999600e+00 1.877383565888000039e+00 4.074252983663000371e+00 3.937846204537999828e+00 2.138657967592000109e+00 6.143964747544999661e+00 5.702815845933000283e+00 7.854231222812999569e+00 5.885045261752000378e+00 6.006268407803999843e+00 6.069034087230000374e+00 8.042469558999999768e-02 3.963231343747000146e+00 5.958113655584000412e+00 2.034048521128000164e+00 6.019199592118000375e+00 3.941685274685000184e+00 1.942617792927999965e+00 6.034991832647000010e+00 5.706556562571999613e+00 4.003541255144999589e+00 4.060062102264000217e+00 5.774510308318999918e+00 5.940760369895000004e+00 6.095737530703000395e+00 3.938065772123000130e+00 6.177346199920999759e+00
2.592504475000000086e-03 2.431656424699999916e-02 3.942986209469999892e+00 3.985260358955000193e+00 7.904584010610999911e+00 7.933986124398000328e+00 3.919686422838999817e+00 4.086586440862999936e+00 4.120094384899999906e-02 3.945236526384999998e+00 4.058925422824000151e+00 3.992777455150999799e+00 1.734390033800000119e-01 4.575493842899999719e-02 7.802167422592000356e+00 7.940355133115000186e+00 4.032252701818999974e+00 3.869028632899999820e-02 7.812718119983999898e+00 3.889636334932999873e+00 3.979696586514999801e+00 4.054286414751000045e+00 5.564368434999999655e-03 3.885971525184999997e+00 2.060297319396999782e+00 2.082334983946000140e+00 2.122918104801000183e+00 2.007083475687000185e+00 1.924743384259000045e+00 6.104006743136999980e+00 1.852577250893000071e+00 6.107509928325000281e+00 1.936371546866000104e+00 1.990648295938000079e+00 5.900877092290000014e+00 5.883290884396999765e+00 6.147332612428000331e+00 1.859236358438000059e+00 1.916189368224999967e+00 6.038956352108000303e+00 2.063048574800999901e+00 5.873649291069999556e+00 5.900296072037000350e+00 5.869694817008999976e+00 1.987114674125000091e+00 5.983023248718000175e+00 6.011504063832999734e+00 5.956745733346999749e+00 1.601342948524999921e+00 2.011250964302000011e+00 7.907814385534999602e+00 7.932283520969000357e+00 2.107379881101000052e+00 2.262584872740999842e+00 1.866139602390000096e+00 4.243769564600000099e-02 1.861852465534000078e+00 2.072266768043999896e+00 1.893961921804999893e+00 3.992451509224999917e+00 1.656878572999999962e-03 1.859188339139999924e+00 5.737759527426000261e+00 2.062430113245000030e+00 7.934895647222999671e+00 6.105599300947000430e+00 1.922263557638000053e+00 5.954585828096999656e+00 2.900399535900000103e-02 6.558786258000000313e-03 5.984452649011999803e+00 2.099025591060000195e+00 1.814289512565999907e+00 3.997026551234999836e+00 2.044853218604000045e+00 2.037664381593999874e+00 6.187871330197999953e+00 4.025765753558999904e+00 7.907211133417000326e+00 6.025946165241999886e+00 5.997439247420000008e+00 1.795513880149999908e+00 3.981116293076000012e+00 5.793408663513999635e+00 6.197130508494000267e+00 1.673310332920999954e+00 7.948983739203000276e+00 3.938584569570000138e+00 2.148533665107999813e+00 1.886542976831000029e+00 5.981636125790999792e+00 1.182194534800000071e-02 2.238036706014999933e+00 5.752283142925000092e+00 1.928271451477999943e+00 4.023847212496000303e+00 3.912140754423000022e+00 2.088372826796999870e+00 6.122072813965999671e+00 5.666486075110999998e+00 7.850370957732000221e+00 5.838980858202999613e+00 6.010386443456999572e+00 6.078695239506999748e+00 5.966609890300000191e-02 3.981786108911999911e+00 5.940525721005999849e+00 2.097204423741000134e+00 6.055399677675000092e+00 3.946112092243000191e+00 1.919181414290999976e+00 6.036246539100999620e+00 5.795116453323999828e+00 3.968714246864000206e+00 4.001574314603000282e+00 5.777745098189999595e+00 5.936215792858999585e+00 6.110791598029000404e+00 3.919500116979000026e+00 6.187052700910999903e+00