-3.056839187049999964e+04
-3.056794777379999869e+04
-3.056779418779999833e+04
-3.056792510169999878e+04
-3.056770309439999983e+04
-3.056772348789999887e+04
-3.056762690790000124e+04
-3.056781071639999936e+04
-3.056772014789999957e+04
-3.056786326030000055e+04
-3.056775693619999947e+04
-3.056770568320000166e+04
-3.056765946379999878e+04
-3.056732207389999894e+04
-3.056693561340000088e+04
-3.056731974579999951e+04
-3.056737463260000004e+04
-3.056722119989999919e+04
-3.056695340550000037e+04
-3.056698590049999984e+04
-3.056705608790000042e+04
-3.056681486379999842e+04
-3.056638146620000043e+04
-3.056660988999999972e+04
-3.056688685569999870e+04
-3.056700947150000138e+04
-3.056686872800000128e+04
-3.056674866100000145e+04
-3.056671422660000098e+04
-3.056711953849999918e+04
-3.056698626259999946e+04
-3.056704260900000008e+04
-3.056735400200000004e+04
-3.056740991510000094e+04
-3.056731479730000137e+04
-3.056748447479999959e+04
-3.056751851510000051e+04
-3.056773321280000164e+04
-3.056783156930000041e+04
-3.056759269259999928e+04
-3.056770201309999902e+04
-3.056790000209999926e+04
-3.056798030210000070e+04
-3.056807768900000156e+04
-3.056794848590000038e+04
-3.056790500560000146e+04
-3.056799121770000056e+04
-3.056801672360000157e+04
-3.056786320160000105e+04
-3.056790028280000115e+04
-3.056796701989999929e+04
-3.056806940519999989e+04
-3.056805016569999862e+04
-3.056805559490000087e+04
-3.056793316469999991e+04
-3.056794313859999966e+04
-3.056792612459999873e+04
-3.056770299119999981e+04
-3.056768692590000137e+04
-3.056762890540000080e+04
-3.056757344799999919e+04
-3.056754462250000142e+04
-3.056756100309999965e+04
-3.056763615270000082e+04
-3.056744793280000158e+04
-3.056727912769999966e+04
-3.056702768099999957e+04
-3.056652093199999945e+04
-3.056687283010000101e+04
-3.056708432600000015e+04
-3.056673927339999864e+04
-3.056666659989999971e+04
-3.056672269869999946e+04
-3.056662916639999821e+04
-3.056672492060000150e+04
-3.056662330970000039e+04
-3.056697067550000065e+04
-3.056688885229999869e+04
-3.056683482599999843e+04
-3.056679015340000115e+04
-3.056718528220000007e+04
-3.056721393689999968e+04
-3.056749534710000080e+04
-3.056730228770000031e+04
-3.056722729420000178e+04
-3.056713067099999898e+04
-3.056758091789999889e+04
-3.056753630970000086e+04
-3.056761528900000121e+04
-3.056768564909999986e+04
-3.056772185750000062e+04
-3.056773461120000138e+04
-3.056781844410000122e+04
-3.056796803210000144e+04
-3.056803484509999907e+04
-3.056802614589999939e+04
-3.056789883159999954e+04
-3.056784706459999870e+04
-3.056793975499999942e+04
-3.056792112089999864e+04
-3.056786883790000138e+04
-3.056794894650000060e+04
-3.056806126660000155e+04
-3.056786934939999992e+04
-3.056779075359999842e+04
-3.056759182359999977e+04
-3.056768115960000068e+04
-3.056786996590000126e+04
-3.056785761920000004e+04
-3.056762259479999921e+04
-3.056768252220000068e+04
-3.056746025540000119e+04
-3.056757762569999977e+04
-3.056749190630000157e+04
-3.056763689950000116e+04
-3.056724273879999964e+04
-3.056700514539999858e+04
-3.056687232329999824e+04
-3.056708797689999847e+04
-3.056700303699999859e+04
-3.056689160370000172e+04
-3.056660486210000090e+04
-3.056688303770000130e+04
-3.056678993170000103e+04
-3.056679527130000133e+04
-3.056676482609999948e+04
-3.056669279599999936e+04
-3.056699337110000124e+04
-3.056691891000000032e+04
-3.056716447329999937e+04
-3.056698777899999914e+04
-3.056719456129999890e+04
-3.056749578509999992e+04
-3.056758085710000159e+04
-3.056736982870000065e+04
-3.056754413130000103e+04
-3.056757597629999873e+04
-3.056752859679999892e+04
-3.056752834399999847e+04
-3.056782079769999837e+04
-3.056805945470000006e+04
-3.056788578300000154e+04
-3.056768050579999908e+04
-3.056765952309999921e+04
-3.056793128599999909e+04
-3.056784356589999879e+04
-3.056798677509999834e+04
-3.056797254089999842e+04
-3.056804727669999920e+04
-3.056800348609999855e+04
-3.056798173030000180e+04
-3.056786737559999892e+04
-3.056803428580000036e+04
-3.056790045190000092e+04
-3.056782579199999964e+04
-3.056753624829999899e+04
-3.056776139379999950e+04
-3.056774246330000096e+04
-3.056774146929999915e+04
-3.056747428479999871e+04
-3.056765264110000135e+04
-3.056767200640000010e+04
-3.056748257119999835e+04
-3.056718093769999905e+04
-3.056705186210000102e+04
-3.056719821289999891e+04
-3.056707464310000069e+04
-3.056719571459999861e+04
-3.056714397259999896e+04
-3.056698520970000027e+04
-3.056694465710000077e+04
-3.056679692319999958e+04
-3.056644712699999945e+04
-3.056676229510000121e+04
-3.056700586470000053e+04
-3.056690324889999829e+04
-3.056643100079999931e+04
-3.056655136340000172e+04
-3.056696294919999855e+04
-3.056731030269999974e+04
-3.056710706900000150e+04
-3.056674737259999893e+04
-3.056693368700000065e+04
-3.056735351710000032e+04
-3.056736726560000170e+04
-3.056744084389999989e+04
-3.056755858200000148e+04
-3.056754685590000008e+04
-3.056750883529999919e+04
-3.056760428690000117e+04
-3.056773614839999937e+04
-3.056772731539999950e+04
-3.056766785589999927e+04
-3.056763695260000168e+04
-3.056770473259999926e+04
-3.056788155270000061e+04
-3.056807391220000136e+04
-3.056783335810000062e+04
-3.056764615380000032e+04
-3.056774271909999879e+04
-3.056785763120000047e+04
-3.056773271820000082e+04
-3.056765860400000020e+04
-3.056782368929999939e+04
-3.056792657799999870e+04
-3.056771726349999881e+04
-3.056768220410000140e+04
-3.056778652689999944e+04
-3.056755028039999888e+04
-3.056738640250000026e+04
-3.056728610420000041e+04
-3.056742518270000073e+04
-3.056742011640000055e+04
-3.056749087069999950e+04
-3.056704317319999973e+04
-3.056696575419999863e+04
-3.056688660019999952e+04
-3.056712483129999964e+04
-3.056712610420000055e+04
-3.056694576900000175e+04
-3.056686874959999841e+04
-3.056678047959999822e+04
-3.056680354799999986e+04
-3.056704104409999854e+04
-3.056683980860000156e+04
-3.056682601789999899e+04
-3.056699205290000100e+04
-3.056718917449999935e+04
-3.056700450540000020e+04
-3.056698830820000148e+04
-3.056721752810000180e+04
-3.056703976669999975e+04
-3.056720531720000145e+04
-3.056753961690000142e+04
-3.056752762969999822e+04
-3.056742744220000168e+04
-3.056761926849999873e+04
-3.056757318859999941e+04
-3.056784492529999989e+04
-3.056789999579999858e+04
-3.056790658020000046e+04
-3.056781483279999884e+04
-3.056791030089999913e+04
-3.056778166979999878e+04
-3.056777503040000011e+04
-3.056792308319999938e+04
-3.056805143279999902e+04
-3.056788800170000104e+04
-3.056781912630000079e+04
-3.056782965210000111e+04
-3.056785683720000088e+04
-3.056787802569999985e+04
-3.056790824390000125e+04
-3.056782052720000138e+04
-3.056790834810000160e+04
-3.056798663569999917e+04
-3.056784038660000078e+04
-3.056772225790000084e+04
-3.056762658490000103e+04
-3.056759479719999945e+04
-3.056769490199999927e+04
-3.056742539839999881e+04
-3.056737287479999941e+04
-3.056729522640000141e+04
-3.056715049200000067e+04
-3.056731296379999912e+04
-3.056710759060000055e+04
-3.056686956700000155e+04
-3.056710248829999910e+04
-3.056721475410000130e+04
-3.056709271430000081e+04
-3.056704812959999981e+04
-3.056710328519999894e+04
-3.056698443459999908e+04
-3.056712249430000156e+04
-3.056711095130000103e+04
-3.056704847349999909e+04
-3.056682550120000087e+04
-3.056692607710000084e+04
-3.056719880869999906e+04
-3.056715698970000085e+04
-3.056733711499999845e+04
-3.056752422529999967e+04
-3.056751227559999825e+04
-3.056758841480000046e+04
-3.056774559020000015e+04
-3.056763969549999820e+04
-3.056753760479999983e+04
-3.056769431569999870e+04
-3.056757076049999887e+04
-3.056762672580000071e+04
-3.056780572789999860e+04
-3.056796540430000096e+04
-3.056769664149999880e+04
-3.056785169099999985e+04
-3.056770810260000144e+04
-3.056779174100000091e+04
-3.056777629289999823e+04
-3.056786246039999969e+04
-3.056786323919999995e+04
