-1.243312741840000013e-01 -4.099807643100000093e-02 -2.576948215900000047e-02 -1.429941072300000039e-02 -3.773913724999999973e-03 -1.976397755050000038e-01 1.243011496789999948e-01 3.927973307399999781e-02 2.830481925900000043e-02 -1.763028079320000108e-01 3.138959421649999970e-01 -2.659724612500000140e-02 -3.071907957000000102e-03 -1.026898434029999974e-01 -4.084663171000000280e-03 3.470505748100000121e-02 8.469598527199999338e-02 -7.286249516000000391e-03 9.247584762100000133e-02 9.714073649299999336e-02 -1.221619352799999982e-02 6.099110885799999965e-02 -1.264019431299999996e-01 1.407768637079999940e-01 -3.811002706339999824e-01 4.106142613359999860e-01 2.840525499789999797e-01 1.393886879710000137e-01 -3.307024010319999929e-01 -1.174415516150000005e-01 1.247069725399999919e-02 -5.799307024580000469e-01 -3.901369545299999964e-02 -1.298119669870000104e-01 9.859086006299999649e-02 9.216014365800000163e-02 5.636515830260000470e-01 -8.034508876999999633e-03 -9.878000153299999753e-02 -2.202856049730000099e-01 -5.084160262089999494e-01 -8.968608465100000315e-02 -5.931298458499999898e-02 -2.678468524699999936e-02 8.783262290140000372e-01 1.318668422170000132e-01 6.351261780560000236e-01 -8.696462900029999776e-01 -1.621524805909999867e-01 -9.905529828799999881e-02 -4.799509125859999781e-01 -1.204503907059999990e-01 1.861147479299999838e-02 6.923878069599999352e-02 -1.557125873599999981e-02 2.503524758069999856e-01 4.334663517500000202e-02 -6.082634743000000024e-03 -8.483325263700000618e-02 6.910751004359999561e-01 1.906892268900000076e-01 1.214723244289999948e-01 9.318401332999999565e-03 -8.265578434699999422e-02 6.993661477379999880e-01 1.717833389999999863e-02 1.806188302610000074e-01 1.183268333729999983e-01 7.425095370740000256e-01 -4.617684378240000109e-01 1.771992034699999830e-02 -3.338971082600000057e-02 -5.327105319599999972e-02 -2.633610661240000095e-01 -7.477173807499999658e-02 7.980625757999999445e-03 3.400392305759999956e-01 -1.031284639312000095e+00 -6.970559190800000582e-02 1.916832782810000135e-01 -2.236468378100000057e-02 3.073945673580000260e-01 -1.388275822712000007e+00 8.397537675400000567e-02 7.467971494000000092e-03 6.764035125499999468e-02 -4.665939409300000340e-02 4.180523142159999761e-01 4.696656590699999773e-02 1.436274299289999890e-01 4.273537741999999806e-02 4.916066523820000200e-01 -1.462628614239999958e-01 2.787664711919999871e-01 1.150211956420000015e-01 -6.709935197830000364e-01 -8.720535421349999705e-01 4.177401897110000206e-01 4.790054955200000186e-02 2.638585580360000016e-01 5.718532555180000365e-01 2.574269705550000231e-01 5.424206765399999797e-02 3.036703857210000246e-01 7.373804074090000160e-01 -1.004543807169999969e-01 1.309058234380000019e-01 -1.800879139119999917e-01 1.086806338449999992e-01 -7.130905639129999640e-01 8.470197947700000562e-02 1.911760866159999961e-01 -1.826917647119999932e-01 -1.725660709369999934e-01 -2.667804868049999945e-01 -1.536768613039999898e-01 7.468637938300000390e-02 1.079485648360000022e-01 -9.696030711759999754e-01 -7.949380930199999307e-02
-2.448916688929999863e-01 -2.839922223999999905e-03 -1.195101196420000067e-01 -3.075764467000000058e-02 6.006686372600000129e-02 -3.691949456929999873e-01 2.931086362499999987e-01 2.417494714299999944e-02 8.239984176600000099e-02 -4.277618424769999983e-01 6.436729673309999900e-01 -8.929065296700000598e-02 -1.033723474099999991e-02 -1.632259952710000128e-01 3.628090153400000129e-02 6.425797430599999860e-02 9.869434063300000504e-02 -2.863823279999999898e-03 1.834707944170000105e-01 1.145907495170000040e-01 -5.578184053899999661e-02 8.151445381600000428e-02 -2.023965227679999923e-01 2.414723126370000028e-01 -7.814141027530000505e-01 6.925726117289999761e-01 4.594729799580000162e-01 3.521779316179999841e-01 6.132920392800000203e-02 -2.110678283200000116e-01 7.131008251600000347e-02 -1.040539807315999932e+00 -8.517634033300000573e-02 -2.922299227480000261e-01 6.264519011399999338e-02 2.056332871519999939e-01 1.012532988183000082e+00 -9.584513096999999412e-03 2.963623213700000009e-02 -3.960394236420000103e-01 -9.124150854270000055e-01 -8.657101883300000189e-02 -1.334374387670000106e-01 -3.294913510800000223e-02 1.661616516407999899e+00 2.923100529609999887e-01 1.137105490221000048e+00 -1.532211867877000033e+00 -3.210967440229999803e-01 -2.752666576419999789e-01 -2.332286431679999883e-01 2.474722661819999947e-01 4.840530534700000082e-02 9.342291068499999906e-02 -4.055817612800000083e-02 3.379451365480000136e-01 1.229150721499999988e-01 -4.012804828600000095e-02 -2.452991051589999971e-01 6.983561532619999568e-01 -3.103101733379999838e-01 2.307442528380000135e-01 -2.625245941300000108e-02 -1.627986278109999907e-01 -4.383634655209999731e-01 2.546644892900000109e-02 3.073110707460000035e-01 1.702293151910000135e-01 5.764734961859999673e-01 -8.389840087609999886e-01 -5.471279578000000192e-03 -5.152729156400000232e-02 -1.043959388329999960e-01 -3.525511451830000142e-01 -1.306118422629999887e-01 -7.058966132000000192e-03 6.289067482850000390e-01 -1.092736214007000051e+00 -6.741121339099999388e-02 2.450452301340000083e-01 -2.589405993199999853e-02 5.198021168799999980e-01 -1.087691080366999907e+00 1.735339175020000069e-01 -8.944893302000000296e-03 6.740554306200000068e-02 -6.338314599709999886e-01 4.526704079950000237e-01 1.165274834510000024e-01 2.432106003060000021e-01 9.439025103600000299e-02 3.116842276319999883e-01 -2.399005752320000073e-01 5.713375210290000394e-01 1.212782843169999958e-01 -8.272581127579999860e-01 -9.094411113550000536e-01 7.323303859990000220e-01 6.415344117299999482e-02 4.535153537689999848e-01 2.515513419750000090e-01 4.649352987079999888e-01 6.122594260099999824e-02 5.363480341580000310e-01 5.640907428570000048e-01 -1.409051314099999952e-01 2.337714701739999901e-01 -3.295617395880000022e-01 1.961324439240000050e-01 -6.823398192509999571e-01 1.647905174869999934e-01 3.045661365319999869e-01 -2.975863802729999952e-01 2.931197256690000197e-01 -4.699500087149999783e-01 -3.517233454440000240e-01 1.168492108179999961e-01 1.797458954170000067e-01 -8.267818638280000076e-01 -1.753587719440000137e-01
-2.768104506060000136e-01 1.333708739699999979e-01 -2.509778196940000150e-01 -5.366950639700000109e-02 1.790710851569999873e-01 -4.350217938420000152e-01 4.726053327959999772e-01 -6.077995783500000221e-02 1.384351697860000119e-01 -6.548411577449999577e-01 8.292719974200000177e-01 -1.369045783339999933e-01 -2.603841935999999871e-02 -1.653364195460000075e-01 1.090814528780000014e-01 3.970251558300000316e-02 2.454157301499999833e-02 9.646331063000000358e-03 2.186168690009999971e-01 1.058790816600000025e-02 -9.884359356899999338e-02 -1.482117175999999974e-02 -1.759448417430000133e-01 2.637272416499999994e-01 -7.988595728039999955e-01 6.053541604529999454e-01 6.264396903069999745e-01 4.201060410920000043e-01 7.615923641120000420e-01 -3.970652666550000265e-01 -1.848116778799999971e-01 -9.272970394430000152e-01 -1.256789420689999881e-01 -4.268132599989999942e-01 -2.502854695699999743e-01 1.186099562050000056e-01 1.082632058850999890e+00 4.805652744399999815e-02 1.631241980810000103e-01 -3.352238840689999999e-01 -9.689739880109999870e-01 -1.178598919400000028e-01 -1.537933189599999945e-02 -4.178865904699999995e-02 1.777926504622999948e+00 3.475300535060000251e-01 1.061134032837999897e+00 -1.432710396945999998e+00 -4.165716827340000261e-01 -4.647622153600000083e-01 6.266687466739999657e-01 7.294917776149999478e-01 6.606999053300000035e-02 6.316841311300000483e-02 -1.103418528729999959e-01 -5.180144017499999781e-02 1.362146964840000030e-01 -5.928930016299999856e-02 -3.964165212119999948e-01 -9.471822894000000298e-03 -8.441435062959999902e-01 1.599163642489999926e-01 -1.222036061720000039e-01 -2.133924756030000092e-01 -2.151482350565999901e+00 3.750341321700000063e-02 2.128727582449999878e-01 -5.104995478999999579e-03 -5.092005917140000060e-01 -4.627668833520000025e-01 -8.206520131000000218e-02 -4.792100491100000081e-02 -1.627525679759999899e-01 -8.426201588000000603e-03 -1.005436674399999980e-01 -9.748569996299999429e-02 4.938050264309999937e-01 2.582199548760000241e-01 1.091751275060000026e-01 -9.979927738999999631e-03 2.045796413100000113e-02 4.990564472630000248e-01 9.305710198340000350e-01 9.398251893799999812e-02 1.918698111800000092e-02 3.085201814900000172e-02 -9.224539634989999959e-01 -1.179189162209999947e-01 2.012021764040000105e-01 2.699250583969999839e-01 1.141814262229999960e-01 -5.297402060600000517e-01 -2.497652174739999897e-01 6.503469068339999826e-01 -9.991706955399999590e-02 -2.146015549059999972e-01 -3.247214100999999686e-02 6.266029821599999883e-01 -1.463171588680000079e-01 2.423528409540000039e-01 -7.399630772899999931e-01 3.901395242449999801e-01 -1.342439389199999965e-02 5.256610134360000242e-01 -5.822666493170000068e-01 -1.036159318840000065e-01 1.983786202989999969e-01 -2.818965990710000091e-01 1.954403152929999887e-01 3.052692592369999902e-01 1.615147461689999953e-01 1.798048545879999960e-01 -2.670099268319999775e-01 1.071248804789000086e+00 -2.444400575760000138e-01 -4.650176709130000030e-01 5.980357712400000136e-02 1.327815355910000050e-01 6.707841859640000237e-01 -2.141338434360000043e-01
-2.274119846930000022e-01 1.767361122159999964e-01 -3.093296015950000033e-01 -9.963093178100000669e-02 1.710635141079999977e-01 -4.784629438399999879e-01 6.348176098850000226e-01 -3.642041285799999667e-02 1.470253958390000115e-01 -7.533503812620000462e-01 9.411629028039999456e-01 -1.061197219869999958e-01 -2.338123516599999868e-02 -2.770390992849999789e-01 1.256644557740000112e-01 -4.547410666400000107e-02 4.922078558899999762e-02 -3.718006534599999774e-02 1.974387578329999948e-01 -4.547522930999999685e-02 -6.063989628199999843e-02 -2.155181901630000008e-01 -2.012136852089999872e-01 2.869742634090000077e-01 -7.235294574899999720e-01 4.074206305400000089e-02 5.504432849720000132e-01 1.577642355019999998e-01 -4.835477586449999921e-01 -4.198716043140000020e-01 -4.301821407770000105e-01 -4.055038725580000225e-01 -2.472676336749999870e-01 -3.291952173720000263e-01 7.645879555550000317e-01 2.458249180959999891e-01 1.062852998474999922e+00 -1.560701026699999952e-02 -1.065672539329999974e-01 1.665319976259999890e-01 -2.480378008080000030e-01 -4.894196905400000075e-02 2.727507197090000002e-01 6.984558152999999908e-03 9.184978251219999557e-01 3.550972802840000053e-01 4.305661448650000001e-01 -9.229021277490000452e-01 -4.134454520079999806e-01 -6.287455897899999480e-01 2.587743975260000107e-01 2.100899813859999909e-01 7.196883076299999404e-02 -1.391857472830000109e-01 -1.649832650610000007e-01 -3.047998721080000251e-01 1.221367310389999961e-01 -9.372039710000000523e-02 -4.140738717210000197e-01 -1.303394835899999993e-02 -9.951632335799999451e-02 3.131455569100000114e-02 -2.297188086749999969e-01 -2.683193977550000220e-01 8.346984441200000493e-02 2.274772950829999918e-01 -3.847887139500000275e-02 -2.512550980209999896e-01 -4.063348200399999888e-01 1.655897611340000075e-01 -1.810336215789999925e-01 1.242698972100000042e-02 -1.978013927349999979e-01 3.045658699880000042e-01 5.962837357800000043e-02 -1.697468644929999992e-01 8.871352026400000645e-02 5.100908025139999635e-01 2.154985363149999888e-01 -4.215828778019999890e-01 4.866655485000000170e-02 2.474326768150000022e-01 2.892956403410000266e-01 1.581457925600000120e-02 -2.057185886200000105e-02 3.227391036300000099e-02 2.074503716240000128e-01 -6.666867419999999989e-02 2.301531525939999878e-01 2.497434951660000013e-01 2.337001705629999926e-01 -4.399983880300000205e-01 -1.825832358739999939e-01 5.217661629290000214e-01 -3.857699785670000159e-01 8.778079695300000651e-02 8.479836750699999703e-02 2.151823188009999999e-01 -4.115161096430000054e-01 -2.207989654599999962e-01 -2.300497439330000116e-01 4.827559670599999853e-02 -1.647089252389999925e-01 3.713835891869999850e-01 -2.575607018339999832e-01 -2.645250307300000062e-02 1.917996430999999863e-02 -4.918445615500000034e-02 1.844025223499999866e-01 5.572704923210000105e-01 9.348266037699999587e-02 -1.116188788130000054e-01 -5.982013021000000264e-02 5.676556856840000442e-01 2.109870604290000062e-01 -4.656033745729999951e-01 -9.885764297200000383e-02 -1.701342382000000167e-02 6.197416898950000030e-01 -2.585761846779999762e-01
-1.575572733149999960e-01 1.593018410500000037e-01 -3.142919656550000052e-01 -1.391012047609999913e-01 9.600584758600000379e-02 -4.538123071940000086e-01 7.021534434109999445e-01 3.922430311800000069e-02 1.300774192230000070e-01 -6.911859264759999677e-01 8.679045533120000044e-01 -2.250983669799999989e-02 -7.468483403000000277e-03 -4.205303233289999776e-01 1.283319373400000074e-01 -1.293817703300000066e-01 1.470863510139999997e-01 -1.264169731679999908e-01 1.781910482219999925e-01 -6.521590817300000620e-02 3.594417482400000252e-02 -4.088958459950000068e-01 -2.264458954130000035e-01 2.737405993190000220e-01 -4.998131765530000048e-01 -7.221010165700000316e-01 1.810352775419999949e-01 -1.377394330260000022e-01 -9.501502339990000046e-01 -1.925185084540000091e-01 -3.737277265469999832e-01 2.841812601020000106e-01 -2.466805484260000125e-01 -1.044861169970000003e-01 1.569076375087000041e+00 3.253190733029999726e-01 7.573304405330000266e-01 -2.987836781599999963e-02 -5.822736577999999830e-02 7.187911660419999960e-01 8.734843553190000387e-01 -9.867110666799999708e-02 4.594256535710000144e-01 7.587295319600000088e-02 -4.803663410239999987e-01 2.009697071579999994e-01 -8.012145506760000035e-01 2.231392924270000078e-01 -1.757404230319999927e-01 -6.733384328760000370e-01 -3.601864029049999805e-01 -5.705930775069999461e-01 8.157279507900000448e-02 -2.652777414479999818e-01 -1.421318653620000094e-01 -1.450924673569999879e-01 1.113108841120000053e-01 -1.596959934180000040e-01 -3.318952790840000167e-01 8.536832664299999485e-02 5.940835277099999479e-01 -7.601221120199999626e-02 -2.390888500639999914e-01 -1.385719615179999975e-01 2.165256363673000006e+00 3.545399106450000115e-01 -2.558814657660000158e-01 -3.857246761500000010e-01 3.429842441150000032e-01 6.054011293350000100e-01 -2.523355216720000183e-01 1.441883906080000111e-01 -1.707943775159999900e-01 1.140526579569999949e-01 2.387841740480000086e-01 -1.841261465440000022e-01 -3.004442542310000186e-01 2.222887367799999958e-02 1.711783600519999893e-01 -5.696425367920000538e-01 3.368855962299999868e-02 -7.391723262999999600e-02 -1.161992075611999908e+00 -2.938245187799999950e-02 -1.085885006500000027e-01 1.115539247069999990e-01 1.173921095442999940e+00 1.532388288550000088e-01 1.952848235490000084e-01 2.156398809329999888e-01 3.432168106699999832e-01 3.714577331330000121e-01 -8.231760380199999727e-02 1.866085205889999876e-01 -4.411020638889999734e-01 1.370987686919999948e-01 1.215881662380000061e-01 -2.720098792130000165e-01 -5.043261313139999480e-01 -5.591532998139999711e-01 1.209991538643000020e+00 -3.058554398539999886e-01 -2.712758447020000019e-01 1.361188286009999970e-01 6.688666727199999995e-01 -7.221610356999999709e-03 -2.050050059609999920e-01 2.837333853840000031e-01 2.179598800410000037e-01 4.391772202299999706e-02 3.239667067299999842e-02 -2.717642670989999787e-01 2.051866211310000021e-01 -8.656957395240000297e-01 4.990470440340000202e-01 -2.536551652290000014e-01 -2.744575271090000101e-01 -1.703707031430000129e-01 -4.627449830370000128e-01 -2.222547703340000125e-01
-1.244570785419999992e-01 2.130881914570000035e-01 -3.328881624750000268e-01 -1.272079336810000016e-01 1.268956997980000001e-01 -2.930006085149999828e-01 6.576468438970000108e-01 -2.472061366499999843e-02 1.489647071079999996e-01 -5.602199214509999692e-01 5.498624436929999693e-01 1.861132539600000163e-02 -9.096846897999999459e-03 -4.026608502899999831e-01 1.824313989380000056e-01 -1.364273064859999884e-01 1.463392464169999962e-01 -1.593253092799999937e-01 2.007508786059999939e-01 -1.424980152320000082e-01 7.918484660900000638e-02 -4.729773452170000225e-01 -1.386836416320000043e-01 1.991557779379999893e-01 -2.030308261600000108e-02 -1.232137718454999975e+00 -2.039723157899999972e-01 -4.610966374950000168e-01 1.697646260250000039e-01 1.735918967600000029e-01 -2.529062968749999918e-01 7.768317717820000246e-01 -6.200189936900000337e-02 2.190301222499999867e-01 4.412031334150000039e-01 1.255265817439999987e-01 3.295331838200000335e-02 -2.197063012999999915e-03 4.943867525339999958e-01 9.904640945549999520e-01 1.147129792497000089e+00 -4.353411862820000255e-01 3.532149750279999778e-01 1.657721699789999892e-01 -1.319765600813999962e+00 -1.605398541140000135e-01 -1.069376392976000067e+00 1.226319069476000001e+00 2.168681368310000079e-01 -4.726610728940000006e-01 -1.265580607089999976e-01 -3.235293420959999833e-01 1.040521246290000007e-01 -1.928029659000000118e-01 -5.094826242500000157e-02 4.150534232499999976e-02 7.009560180599999635e-02 -2.143086257669999939e-01 -1.885615362009999962e-01 -4.539716009179999845e-01 3.872341275019999807e-01 -1.053092850810000008e-01 -9.892235205799999875e-02 7.589237098199999587e-02 5.790261372110000471e-01 2.772502868419999822e-01 -2.951935929480000165e-01 -2.823225867649999943e-01 1.517652750650000104e-01 6.410617253120000081e-01 -2.266839734409999974e-01 2.176440499979999943e-01 -9.237658154899999752e-02 -4.035638546590000209e-01 2.914966608210000087e-01 -1.097113903520000044e-01 -4.803590346880000084e-01 3.865687474350000263e-01 -1.721157391539999970e-01 -3.880018127439999742e-01 1.293460988799999961e-02 -2.417463618569999917e-01 3.433785779069999933e-01 -1.171540099799999943e-02 -8.145517014299999414e-02 2.403132017880000026e-01 5.529276576060000448e-01 -2.622816776390000104e-01 9.199442197099999552e-02 1.944408756719999964e-01 3.452711563770000103e-01 5.257996244920000173e-01 5.122646537699999947e-02 -1.865310678040000003e-01 -1.442148808760000123e-01 4.503854879879999884e-01 6.535097313400000107e-01 -5.815285966790000316e-01 -3.701432645400000165e-01 -5.028164672479999986e-01 4.800538013890000011e-01 -4.249436112750000216e-01 -1.831840150950000135e-01 -9.231992489800000534e-02 2.335754364490000012e-01 4.483384647400000256e-02 -3.003042429150000192e-01 4.995689148749999919e-01 2.116739512889999897e-01 -2.324855737799999891e-02 -4.680102811000000015e-03 -2.219728435599999938e-01 5.245536767149999724e-01 -1.185627370583999918e+00 4.015912873510000258e-01 2.088053958670000043e-01 -3.448039909669999847e-01 -1.685931251620000071e-01 -1.750157248739999949e-01 -1.758862304099999968e-02
-1.247604798520000058e-01 2.184334869900000087e-01 -3.076538552449999964e-01 -8.226960445299999480e-02 1.998889861379999910e-01 -8.770124996299999420e-02 5.615496227940000029e-01 -1.575146237520000103e-01 1.689553547540000034e-01 -4.288618436869999773e-01 2.060660739319999935e-01 -1.319419352399999953e-02 -4.973150894600000121e-02 -3.153794035270000018e-01 2.416460764170000053e-01 -7.500604333600000007e-02 7.698802664600000456e-02 -1.261053346119999918e-01 2.273809168210000065e-01 -1.663119253129999864e-01 5.005158369700000304e-02 -4.001844614030000136e-01 -4.342283680899999831e-02 1.324369746209999865e-01 3.074184868729999964e-01 -1.162114231329999914e+00 -5.650691890829999675e-01 -5.147941628179999451e-01 2.374506577937999907e+00 5.354762412739999533e-01 -1.185715074829999938e-01 7.295205078540000221e-01 2.590409973080000094e-01 5.224782846250000112e-01 -6.548301863150000068e-01 -2.851306357339999931e-01 -9.893378948009999840e-01 9.645542850299999860e-02 1.523547998141999926e+00 8.293012011270000094e-01 6.331234794979999636e-01 -7.314328247169999964e-01 5.968855156700000192e-02 2.052387741489999917e-01 -1.188231850338000051e+00 -6.391054006790000130e-01 -6.386181441580000007e-01 9.229285185929999580e-01 5.790395969570000245e-01 -5.393306456500000096e-02 4.486015912800000310e-02 4.645159430610000251e-01 9.656946217700000668e-02 2.440797210699999914e-02 4.737776468999999741e-02 -2.653601148490000172e-01 -1.598961512999999904e-02 -2.208328090170000035e-01 -7.781345063800000628e-02 -4.362950238159999938e-01 2.813516096929999932e-01 -2.671636785400000047e-02 1.490221465140000034e-01 2.207372768839999944e-01 -2.495616150130000044e+00 5.915169884500000308e-02 -1.400070447070000113e-01 -7.959804962699999764e-02 -1.874227152659999895e-01 2.594320623149999894e-01 -6.889353938999999427e-02 9.862495352500000312e-02 7.714274620500000124e-02 -5.011227650180000159e-01 2.053586951099999891e-01 7.759111229000000345e-03 -4.397232673579999918e-01 7.754567877650000440e-01 -6.246198544269999653e-01 -4.902229324199999794e-02 2.800521684599999866e-02 -2.457062775809999988e-01 1.531646539016999986e+00 4.216896974199999676e-02 4.281753658000000094e-03 2.374032808550000095e-01 -1.111222946482000040e+00 -3.919606066160000180e-01 -4.585165359599999851e-02 8.533671854900000409e-02 2.222267384340000096e-01 8.179793655799999508e-02 9.295766110400000004e-02 -4.273948829750000011e-01 3.414620008520000138e-01 4.377826153480000038e-01 5.257481716540000072e-01 -6.181037285179999952e-01 -1.582821913169999983e-01 -1.748030852390000112e-01 -1.323254863260000080e+00 -2.771731487599999877e-01 5.975743872099999882e-02 -2.114578665780000033e-01 -7.146574871930000405e-01 1.497082654069999963e-01 -2.077845661190000082e-01 5.090657046090000248e-01 1.187068781419999969e-01 2.516124047289999832e-01 -8.569702810300000584e-02 -5.150299325899999892e-02 8.370462316440000494e-01 -1.235557121449999962e-01 1.710815077379999882e-01 6.026482171949999467e-01 -1.627340476370000011e-01 2.766532683999999801e-03 8.820356772690000069e-01 1.912660050720000060e-01
-6.741650760499999506e-02 1.695983816599999985e-02 -1.152649799029999977e-01 -4.318161461899999720e-02 1.655167284029999963e-01 8.160934799999999736e-04 4.672701924920000249e-01 -1.738068763149999973e-01 1.264044112390000085e-01 -2.813676705309999804e-01 5.071440684800000015e-02 -5.977958542899999839e-02 -1.080085165099999994e-01 -3.515786746439999999e-01 1.863599787970000032e-01 -3.154741402800000094e-02 7.756268013500000613e-02 -9.520667422200000674e-02 2.299472777459999895e-01 1.971953992000000187e-03 2.167730791900000092e-02 -2.985872323320000188e-01 -8.975316490099999323e-02 1.812903856499999966e-01 1.367787445330000129e-01 -5.227031151719999658e-01 -8.843506353679999599e-01 -2.805347166339999809e-01 8.865562965100000081e-01 3.798678039150000241e-01 2.678812451779999937e-01 2.783956208710000046e-01 3.672709020730000051e-01 5.080768839460000352e-01 3.851119049880000200e-01 -5.184187529299999486e-01 -1.441620191479999979e+00 1.397732300339999956e-01 1.176355203711000108e+00 5.165089419780000135e-01 2.359545144780000048e-01 3.828307413499999756e-02 -2.533414714800000245e-01 1.293129122239999873e-01 -6.686578491979999761e-01 -7.117714867519999711e-01 -4.276555987339999976e-01 3.031317567960000181e-01 8.387091357479999898e-01 3.937645918900000153e-01 -2.578270448910000012e-01 2.252585284230000096e-01 -3.852988833499999821e-02 8.582593047000000586e-02 1.404107871760000015e-01 -6.708078306050000439e-01 -8.688462534400000215e-02 -1.136744326709999975e-01 1.214681419899999934e-02 6.005324971750000129e-01 4.582709946329999728e-01 1.518162173379999924e-01 2.392172582990000074e-01 2.799686492339999999e-01 -4.767340059069999914e-01 2.838682878199999884e-02 8.192021126199999781e-02 -3.053761140000000110e-02 4.928469793410000244e-01 -3.971075910640000095e-01 1.390500516189999980e-01 -7.504103399000000563e-02 3.037797127529999752e-01 -2.421228013349999986e-01 6.444114122900000685e-02 6.160400843200000004e-02 -3.649152692970000222e-01 -1.051546246000000092e-03 -4.525111703879999836e-01 1.745989560020000109e-01 5.892204142100000014e-02 -1.137881404239999977e-01 -7.161758364139999555e-01 1.248265320570000059e-01 4.947881902399999671e-02 3.060008343989999990e-01 -9.249247471449999480e-01 4.333096450980000180e-01 -2.886283989110000059e-01 -1.384101726280000111e-01 1.032637117600000015e-01 6.444429864400000318e-02 -2.282386738199999876e-02 -4.142224239080000148e-01 6.602472123010000304e-01 -5.488013768780000134e-01 -5.308346556499999869e-01 -4.710963786440000023e-01 2.746972955699999996e-02 2.356476653360000117e-01 -6.532866544009999776e-01 -9.682637090699999782e-02 2.271921264170000121e-01 -2.492779285379999876e-01 -5.476242366879999768e-01 2.109111599140000015e-01 -2.637537662000000172e-02 2.968000514260000222e-01 3.792841574699999663e-02 -2.393468129000000076e-03 -1.737299718070000054e-01 8.730647077700000314e-02 7.821959937300000387e-01 1.293988630100000037e-01 -4.940897259920000173e-01 4.852191087909999978e-01 1.494436148330000047e-01 1.321816344620000139e-01 2.590647127390000026e-01 1.360550856409999954e-01
1.990998054200000117e-02 -2.240260878149999968e-01 1.400055827199999936e-01 2.341758408300000094e-02 1.078817603890000060e-01 1.354386275299999942e-02 3.378113261949999835e-01 -1.733936189189999866e-01 2.832016465899999877e-02 -1.291075150650000114e-01 -8.903843314900000694e-02 -9.764795526099999401e-02 -1.649445653319999983e-01 -3.693719865730000218e-01 7.267165324100000046e-02 6.917822544999999677e-03 9.122154752699999924e-02 -8.424866773700000200e-02 2.501261874619999936e-01 2.024210453259999987e-01 -1.207992865999999929e-02 -1.687601047710000080e-01 -1.351467322830000040e-01 2.569193670170000221e-01 5.770690531000000068e-02 2.492395812069999883e-01 -5.324819483199999537e-01 9.249879307199999900e-02 -6.298661402290000044e-01 -2.892740804300000246e-01 6.383525230109999837e-01 -2.988970591180000191e-01 2.270428797300000009e-02 3.597152217340000013e-01 1.163349258148999921e+00 -2.081951520789999954e-01 -1.318963816988999893e+00 2.062799124280000063e-01 -1.707355025679999916e-01 2.361873852609999991e-01 5.831615543199999974e-02 9.669136264700000094e-01 -3.352326668889999972e-01 -3.883946160599999892e-02 -1.088558371980000022e-01 -3.755107990900000137e-01 -2.551213117360000004e-01 -1.355887582470000075e-01 7.709296097359999989e-01 6.204158525290000004e-01 3.403067269819999852e-01 -4.062497296079999876e-01 -2.993773432369999932e-01 -3.656824845099999888e-02 2.655810640149999791e-01 -3.535648627440000080e-01 -5.302763728800000131e-02 9.339591552999999824e-02 -3.367117103299999831e-02 4.216486299050000164e-01 -2.296964485690000113e-01 2.414938677260000111e-01 1.845164331770000055e-01 1.358615632029999964e-01 1.526056349180999971e+00 3.427342678000000215e-03 1.896891865729999904e-01 -1.120007577369999952e-01 9.292355943029999565e-01 -7.653854362540000178e-01 2.153287919399999861e-01 -1.442831843819999960e-01 4.771476770220000052e-01 -2.363039646029999885e-01 5.090687651000000424e-03 1.630221949999999947e-02 -2.483586153829999976e-01 -8.968010984399999996e-01 4.063493071379999932e-01 2.185473906419999890e-01 6.883269029499999858e-02 -3.353703606499999768e-02 -2.142521600640999946e+00 2.561340505510000254e-01 1.732030531700000028e-02 4.113830735180000198e-01 4.639459136819999996e-01 7.902956874669999632e-01 -5.321114374780000489e-01 -2.530469958089999749e-01 -4.122761240799999866e-02 1.684315748050000117e-01 -2.795090982480000208e-01 -1.750273221679999880e-01 7.473124757760000181e-01 -1.104076358671999936e+00 -6.300577555809999675e-01 -1.843309508410000130e-01 1.670454636940000015e-01 5.173805926290000468e-01 1.120289838349000089e+00 -4.987158886700000099e-02 1.758152641759999912e-01 -1.922123939550000049e-01 1.678365694720000134e-01 1.188759628979999955e-01 1.508004717020000052e-01 -4.031968829500000295e-02 -7.480447061099999850e-02 -2.634420379710000204e-01 -2.135016859530000088e-01 1.029429726540000006e-01 3.535388200269999892e-01 -3.574877669899999971e-02 -1.318308439614999994e+00 6.226998891300000033e-02 3.869951194840000053e-01 6.628266194399999589e-02 -1.102981788514999950e+00 -1.502315751019999979e-01