-4.473704652167486140e-01 1.627805702346203642e-01 -6.310715558401625014e-02 1.627805702346203642e-01 1.375597644304571709e-01 -6.371101589068864368e-02 -6.310715558401625014e-02 -6.371101589068864368e-02 2.288751787544181793e-01
1.157107580237013655e+00 1.993168867660155275e-01 -2.197337548883666336e-01 1.993168867660155275e-01 2.640457279853219763e+00 -1.531730167334979797e-01 -2.197337548883666336e-01 -1.531730167334979797e-01 2.180076327450642726e+00
-4.610311832304773288e-02 8.990482402711108545e-02 -3.464989755412659078e-01 8.990482402711108545e-02 3.115133225751142376e+00 -6.942404791696252242e-02 -3.464989755412659078e-01 -6.942404791696252242e-02 2.306092734851575288e-01
-2.902516584605455918e+00 3.024042991106409839e-01 -5.192416149050513852e-01 3.024042991106409839e-01 2.388051453970574112e-01 -5.686472247145049064e-01 -5.192416149050513852e-01 -5.686472247145049064e-01 -4.039690770058126823e+00
-4.205157891651437829e+00 3.108899869937658544e-01 -6.169741087376396926e-01 3.108899869937658544e-01 -3.325264694177205160e-01 -1.039263432274079024e+00 -6.169741087376396926e-01 -1.039263432274079024e+00 -6.478179117455566960e+00
-4.098970399942131415e+00 1.675704179000143401e-01 -3.898873357375858273e-01 1.675704179000143401e-01 -6.775981306752608679e-01 -9.049323019558429548e-01 -3.898873357375858273e-01 -9.049323019558429548e-01 -6.207457375842296621e+00
-2.237694161788270186e+00 2.427874810547324125e-01 -9.791677276895113802e-02 2.427874810547324125e-01 1.942604508459305990e+00 -6.285979334402331808e-01 -9.791677276895113802e-02 -6.285979334402331808e-01 -3.149334864275365575e+00
-1.306432465999472770e-01 2.999351688966379603e-01 -1.350201751206256129e-01 2.999351688966379603e-01 1.049110233910862222e+00 -3.545355186961885452e-01 -1.350201751206256129e-01 -3.545355186961885452e-01 -1.220204411936693240e-01
6.841762683941037260e-01 5.185694974362554666e-01 -3.467248233349770059e-01 5.185694974362554666e-01 7.970963273436945107e-01 -1.518421085075603860e-01 -3.467248233349770059e-01 -1.518421085075603860e-01 7.054148888256440708e-01
-7.334766804413292984e-01 8.116755877440774425e-01 -2.645616797481930016e-01 8.116755877440774425e-01 3.801651353575162262e-01 -2.930684682209184003e-02 -2.645616797481930016e-01 -2.930684682209184003e-02 1.861190419494078707e-01
1.856741757180056240e-01 6.007641237556028413e-01 2.562805666476400401e-01 6.007641237556028413e-01 3.970664324229771225e+00 4.932957685121279190e-01 2.562805666476400401e-01 4.932957685121279190e-01 3.299553927753881566e-01
3.070087907218708168e+00 -7.396398954143290627e-02 9.551508270776223331e-01 -7.396398954143290627e-02 4.468128668854590479e+00 5.304996098744908517e-01 9.551508270776223331e-01 5.304996098744908517e-01 2.424262441560699755e-01
-1.761276739440942041e-01 6.122944335150526385e-01 1.443257967638796657e+00 6.122944335150526385e-01 8.432089013711535630e-01 6.741941694320435774e-01 1.443257967638796657e+00 6.741941694320435774e-01 -1.563968180947008291e+00
-3.475650898087550456e+00 1.374616519204450382e+00 1.463361371385332177e+00 1.374616519204450382e+00 -2.937495421047371824e+00 9.376449490391449704e-01 1.463361371385332177e+00 9.376449490391449704e-01 -3.304481116771583515e+00
-5.317787220103935120e+00 8.670428598560673272e-01 8.532794195603639054e-01 8.670428598560673272e-01 -9.975114501460217165e-01 9.547726552528312816e-01 8.532794195603639054e-01 9.547726552528312816e-01 -1.396805808386853309e+00
-6.092635488321461068e+00 7.456771140325683944e-02 3.496647547381026566e-01 7.456771140325683944e-02 1.698707309055452086e+00 1.062804226289122189e+00 3.496647547381026566e-01 1.062804226289122189e+00 -5.647434815138882014e-01
-5.322649762541039387e+00 -6.665341202307908386e-01 2.104649256368512633e-01 -6.665341202307908386e-01 3.345942426356656618e+00 8.398463200244911109e-01 2.104649256368512633e-01 8.398463200244911109e-01 -1.270864226323879242e-01
-3.027696797481766566e+00 -1.097225881405825110e+00 -2.756957070729887938e-01 -1.097225881405825110e+00 -2.021296303059790134e+00 1.712162445382044984e-01 -2.756957070729887938e-01 1.712162445382044984e-01 -1.939044706336189527e+00
-3.972298513738519610e+00 -8.399768570838198611e-01 7.576736646904912815e-04 -8.399768570838198611e-01 -7.558973037233116976e+00 -7.761447866878729007e-02 7.576736646904912815e-04 -7.761447866878729007e-02 -1.377634861975231884e+00
-5.566092943659103121e+00 -4.931267101033401379e-02 2.940368734184234389e-01 -4.931267101033401379e-02 -9.072461692046005055e+00 -6.724273614784883613e-01 2.940368734184234389e-01 -6.724273614784883613e-01 1.745279033886534936e+00
-4.732250164847640050e+00 4.690957325703784542e-01 2.863341905058343073e-01 4.690957325703784542e-01 -3.914616722684616246e+00 -1.137311884363201742e+00 2.863341905058343073e-01 -1.137311884363201742e+00 3.745966170446226595e+00
-1.210270303775455636e+00 6.322140349775887680e-01 1.040404158279212954e+00 6.322140349775887680e-01 2.474182117681305026e+00 -1.053206742276986185e+00 1.040404158279212954e+00 -1.053206742276986185e+00 2.150942422442431390e+00
-1.242933641566525305e+00 6.528460402124989237e-01 1.172003761950891843e+00 6.528460402124989237e-01 5.245961454999258144e+00 -1.119734500581720971e+00 1.172003761950891843e+00 -1.119734500581720971e+00 -3.652094751547350082e+00
-6.738708743821585578e+00 6.550422208257534740e-01 7.827097595035000799e-01 6.550422208257534740e-01 3.343150823639804425e+00 -8.249969153704519442e-01 7.827097595035000799e-01 -8.249969153704519442e-01 -8.149786074659278512e+00
-9.805085412635355269e+00 -8.931538917191182703e-02 3.168854689973191752e-01 -8.931538917191182703e-02 4.104532738027674377e+00 -7.183285622386306191e-01 3.168854689973191752e-01 -7.183285622386306191e-01 -8.827642786447617240e+00
-8.792121754119882837e+00 -1.335747738147170072e+00 -8.034869397103727717e-01 -1.335747738147170072e+00 6.352251032146108756e+00 -1.181141826943530732e-01 -8.034869397103727717e-01 -1.181141826943530732e-01 -6.379610575370085357e+00
-3.769351635907266740e+00 -5.773060245549525016e-01 -1.200692791796333481e+00 -5.773060245549525016e-01 7.767865313808813177e+00 1.764564402641885188e+00 -1.200692791796333481e+00 1.764564402641885188e+00 -4.210279971646681219e+00
2.987819373455744110e+00 7.095878080395378040e-01 -4.292751751028124618e-02 7.095878080395378040e-01 8.522664333995416897e+00 1.774266752260661661e+00 -4.292751751028124618e-02 1.774266752260661661e+00 -3.642769560166608578e+00
4.197069249444127514e+00 1.534430488479002541e+00 8.542131214623538416e-01 1.534430488479002541e+00 9.761855054702170520e+00 1.352820544423994020e+00 8.542131214623538416e-01 1.352820544423994020e+00 -4.896360277972396702e+00
-3.749460999757831203e+00 6.447196338683420791e-01 4.480275145246925828e-01 6.447196338683420791e-01 2.755624609673398950e+00 1.285449298160177944e+00 4.480275145246925828e-01 1.285449298160177944e+00 -2.702908485382681025e+00
-7.345152934605800432e+00 -3.927101219955730360e-01 1.331289750604209288e-01 -3.927101219955730360e-01 -1.502506949328466623e+00 9.478165646682730205e-01 1.331289750604209288e-01 9.478165646682730205e-01 7.716094230276422383e-01
-6.037825441228089396e+00 -8.558040512420317381e-01 2.499504622975880219e-01 -8.558040512420317381e-01 -2.647186844979387388e+00 6.119937330791853647e-01 2.499504622975880219e-01 6.119937330791853647e-01 -9.074148533974832342e-02
-6.482924033704786204e+00 -3.686242201493291626e-01 2.039719121482316821e-01 -3.686242201493291626e-01 -1.778372481773271785e+00 1.510573753685102716e-01 2.039719121482316821e-01 1.510573753685102716e-01 -1.148390407097795718e+00
-3.352966923599278282e+00 4.266144167819268529e-01 2.149819709788162725e-01 4.266144167819268529e-01 1.895955335586848367e+00 2.723762887510626785e-01 2.149819709788162725e-01 2.723762887510626785e-01 -2.935524907165159458e+00
-2.132957489218612501e+00 5.186313822351323877e-01 1.590921490833063778e-01 5.186313822351323877e-01 4.221957240148652701e+00 3.751900927348571502e-01 1.590921490833063778e-01 3.751900927348571502e-01 -3.249950585752941823e+00
-2.381574794792456817e+00 8.895989400035334560e-01 -5.819846402254418016e-02 8.895989400035334560e-01 2.864876478727276243e+00 4.307113747978281726e-01 -5.819846402254418016e-02 4.307113747978281726e-01 -1.619377976105734085e+00
1.660513416799358266e+00 1.041618502507759558e+00 -2.413131361600486802e-01 1.041618502507759558e+00 3.415509006568222539e+00 2.068900876418235391e-01 -2.413131361600486802e-01 2.068900876418235391e-01 6.293494800428655056e-01
3.203631727952083619e+00 7.489696675245097746e-01 -4.822454813752745650e-01 7.489696675245097746e-01 2.203760236686548968e+00 7.454594784726623069e-02 -4.822454813752745650e-01 7.454594784726623069e-02 -1.361832415078251035e+00
6.734947995200556425e-01 6.981711356115882783e-01 -6.157790274617458426e-01 6.981711356115882783e-01 -1.110809904003280391e+00 3.051150714056021784e-01 -6.157790274617458426e-01 3.051150714056021784e-01 -3.483814007922398925e+00
-1.472237353116115699e+00 4.017326778092134010e-01 -6.372556605933071827e-01 4.017326778092134010e-01 -4.436137769196268343e-01 1.119723757967571870e-01 -6.372556605933071827e-01 1.119723757967571870e-01 -3.809412668561138027e+00
-3.595252099549381963e+00 -5.567701542444356000e-02 -7.209923407536085183e-01 -5.567701542444356000e-02 -1.473010771347082803e+00 -2.729569945652908225e-01 -7.209923407536085183e-01 -2.729569945652908225e-01 -3.661649551665007607e+00
-5.467960328557615490e+00 5.221618470049281535e-02 -7.344282878016726857e-01 5.221618470049281535e-02 -2.145047920736144142e+00 -3.514165585680164572e-01 -7.344282878016726857e-01 -3.514165585680164572e-01 -3.185786244426842106e+00
-6.012814066972989480e+00 2.967433798508667397e-01 -7.291269551547556738e-01 2.967433798508667397e-01 -2.822154803618086127e+00 -2.635499976651715093e-01 -7.291269551547556738e-01 -2.635499976651715093e-01 -2.690319005273763331e+00
-7.509665836010809947e+00 3.335071997857279591e-01 -6.206040464260025313e-01 3.335071997857279591e-01 -3.931823813493905639e+00 -3.613038249103641131e-01 -6.206040464260025313e-01 -3.613038249103641131e-01 -2.197458425955399974e+00
-6.416306707520939234e+00 1.854125172338662864e-01 -3.671430710017800636e-01 1.854125172338662864e-01 -2.126047174477776025e+00 -6.248059838380013442e-01 -3.671430710017800636e-01 -6.248059838380013442e-01 2.642877392947844961e-01
-9.922353577788772805e-01 -2.048839093582163762e-01 -3.527195557280861649e-01 -2.048839093582163762e-01 6.468400319701130829e-01 -1.040841827796506136e+00 -3.527195557280861649e-01 -1.040841827796506136e+00 4.681177988691598735e+00
3.280479474232874448e+00 -1.072417574114729877e-02 -2.299189083344753692e-01 -1.072417574114729877e-02 2.858638272955659421e+00 -8.455115138056235047e-01 -2.299189083344753692e-01 -8.455115138056235047e-01 7.652972719005247448e+00
3.880964145853947223e+00 4.818706668404448279e-01 1.015397752333760811e-01 4.818706668404448279e-01 2.181071050729925354e+00 -3.727557538032696405e-01 1.015397752333760811e-01 -3.727557538032696405e-01 5.549082137915348767e+00
-1.517243331183892319e-01 2.076841327052320607e-01 1.301504212297877050e-01 2.076841327052320607e-01 5.969738742029021689e-02 -2.056791559519292045e-01 1.301504212297877050e-01 -2.056791559519292045e-01 2.855949455572632800e+00
-2.684360279833714724e+00 -5.019529210816756765e-02 1.481604805219256249e-01 -5.019529210816756765e-02 -1.214628150395645534e+00 -6.760155171029362531e-02 1.481604805219256249e-01 -6.760155171029362531e-02 3.308992528980053693e-01
-6.426233303231122518e-01 -1.655666042416044648e-01 3.224465608250505766e-01 -1.655666042416044648e-01 2.497782855029783422e-01 -5.236130342855903341e-02 3.224465608250505766e-01 -5.236130342855903341e-02 -6.138160025218359905e-01
3.072365694794505941e+00 -3.060785676368141806e-01 7.916201518900707335e-01 -3.060785676368141806e-01 4.805368471138366515e-01 1.299377455002367898e-01 7.916201518900707335e-01 1.299377455002367898e-01 -3.773596643417175267e-01
2.420214401612597044e+00 3.376229307193394369e-02 1.055240226126729519e+00 3.376229307193394369e-02 -2.262814283277790661e+00 5.644761571895728913e-02 1.055240226126729519e+00 5.644761571895728913e-02 1.411996012798171496e-01
-1.459287599182350625e+00 6.748648300407870115e-01 8.215702880203316072e-01 6.748648300407870115e-01 -5.199353513772397406e+00 -2.584453103567564414e-01 8.215702880203316072e-01 -2.584453103567564414e-01 -1.462909494684366596e+00
-2.988802821079330485e+00 8.299394399388195787e-01 5.410371609914634838e-01 8.299394399388195787e-01 -6.097811326241171059e+00 -4.107695747296652988e-01 5.410371609914634838e-01 -4.107695747296652988e-01 -6.433707900848683048e-01
-2.719140271766299133e+00 7.322515540859555472e-01 3.516223526370353958e-01 7.322515540859555472e-01 -4.195342463136774391e+00 -6.949091704228761435e-01 3.516223526370353958e-01 -6.949091704228761435e-01 1.926064955938737278e+00
-6.868723919698702662e-01 2.270527949937692636e-01 1.626978017537061005e-01 2.270527949937692636e-01 -1.741542128642716181e+00 -1.178653942532049692e+00 1.626978017537061005e-01 -1.178653942532049692e+00 2.749321009180198949e+00
-3.656509119963412269e-02 -2.519910901958350991e-01 1.525334924641831846e-01 -2.519910901958350991e-01 8.225429333083920103e-01 -1.504042321938164672e+00 1.525334924641831846e-01 -1.504042321938164672e+00 1.289492518655625419e+00
-3.622999435413909008e+00 -4.144075867608697922e-02 6.047098845220831853e-01 -4.144075867608697922e-02 -5.567009400044931056e-01 -1.055212039740250241e+00 6.047098845220831853e-01 -1.055212039740250241e+00 8.629210503336085525e-01
-4.302245136720681984e+00 1.205706339963345808e-01 6.674365061279309286e-01 1.205706339963345808e-01 -1.843337009296550200e+00 -8.612605768517445082e-02 6.674365061279309286e-01 -8.612605768517445082e-02 2.614686327730574078e+00
-1.587490620043596978e+00 1.396977159884477682e-01 2.166948500028610114e-01 1.396977159884477682e-01 -1.774713645155663544e+00 4.459231465436660491e-01 2.166948500028610114e-01 4.459231465436660491e-01 5.973320406263870730e+00
-2.027525240085802594e+00 8.987824061444047441e-01 4.214236561053837371e-01 8.987824061444047441e-01 -1.756119415443116116e+00 5.002466495868274077e-01 4.214236561053837371e-01 5.002466495868274077e-01 6.317412181435143381e+00
-2.448179137905913016e+00 1.358888724874453668e+00 6.170156837566178609e-01 1.358888724874453668e+00 -5.093879690787669112e+00 -3.607155651686844711e-01 6.170156837566178609e-01 -3.607155651686844711e-01 3.035040810100747555e-01
-1.774448418467576394e+00 1.049281374861318374e-02 4.319293524783462956e-01 1.049281374861318374e-02 -8.315878585287604707e+00 -1.134933950944937431e+00 4.319293524783462956e-01 -1.134933950944937431e+00 -4.867736392521795352e+00
2.861939352507933521e+00 -5.875796869942695455e-01 5.242222240291463109e-01 -5.875796869942695455e-01 -7.383623222909478478e+00 -1.258163944842481952e+00 5.242222240291463109e-01 -1.258163944842481952e+00 -4.221832076346017537e+00
4.950522534289292231e+00 -6.298819652554226156e-01 2.183656705833101341e-01 -6.298819652554226156e-01 -8.874864585358748670e+00 -1.348384373162349936e+00 2.183656705833101341e-01 -1.348384373162349936e+00 -3.835330849780544504e+00
2.831216379134978922e+00 -3.236203458534787636e-01 -3.863745278795793214e-01 -3.236203458534787636e-01 -1.313811217127524067e+01 -7.670366527500181997e-01 -3.863745278795793214e-01 -7.670366527500181997e-01 -5.793593512334827444e+00
1.820756902134948785e+00 8.504715906650095469e-01 -6.551069322744986767e-01 8.504715906650095469e-01 -1.214117271054248093e+01 -1.514134863503877049e-01 -6.551069322744986767e-01 -1.514134863503877049e-01 -4.798721618953568857e+00
6.342594096877777865e+00 7.900124382568443071e-01 -4.935887370920749029e-01 7.900124382568443071e-01 -7.987387751239611866e+00 -6.893222401167308222e-01 -4.935887370920749029e-01 -6.893222401167308222e-01 -5.634063799623388213e+00
1.228121926625112437e+01 2.130654394938021334e-01 -1.940381379849857035e-01 2.130654394938021334e-01 -2.185430101225524502e-01 -7.068644370133829735e-01 -1.940381379849857035e-01 -7.068644370133829735e-01 -1.819291100989940180e+00
1.234804754417261918e+01 -4.561860721917075367e-01 -1.036421562474792724e-01 -4.561860721917075367e-01 6.338508249314013909e+00 -8.253912205218290055e-01 -1.036421562474792724e-01 -8.253912205218290055e-01 4.736225200336002139e+00
6.558926210545776847e+00 -8.428508602131298266e-01 -4.365639144604357980e-01 -8.428508602131298266e-01 2.145768361560359327e+00 -4.561691209415036918e-01 -4.365639144604357980e-01 -4.561691209415036918e-01 7.498047158261751832e+00
1.032839204840143355e+00 2.322506822796089887e-01 -6.669791180152860599e-02 2.322506822796089887e-01 -3.138866216885445315e+00 2.120790684389364245e-01 -6.669791180152860599e-02 2.120790684389364245e-01 3.633056308792557587e+00
1.076590787858285186e-01 7.312574345036488843e-01 4.721825653251529031e-01 7.312574345036488843e-01 -3.003918011932837029e+00 -2.293286026542758482e-01 4.721825653251529031e-01 -2.293286026542758482e-01 -1.304682210794259944e+00
-3.227967598633857405e-01 -3.239070605200077280e-01 8.820548250350491726e-01 -3.239070605200077280e-01 1.722912750435671159e+00 1.277098943582350710e-01 8.820548250350491726e-01 1.277098943582350710e-01 -3.933449262402498370e+00
-1.497323939968492779e+00 -1.180484941415850919e+00 8.260051604134226455e-01 -1.180484941415850919e+00 4.274917480032183192e+00 -4.795247514401466959e-02 8.260051604134226455e-01 -4.795247514401466959e-02 -3.218772747580554761e+00
-7.634320589883309083e+00 -4.900602707834174621e-01 4.941822493730024246e-01 -4.900602707834174621e-01 -3.287399162437638633e+00 -1.222085839843989996e+00 4.941822493730024246e-01 -1.222085839843989996e+00 -1.957983677184746085e+00
-1.173277140677563679e+01 6.554423702859859535e-01 9.774330222178556626e-01 6.554423702859859535e-01 -8.564492045460852410e+00 -9.492797803031050030e-01 9.774330222178556626e-01 -9.492797803031050030e-01 -5.134029819175252030e+00
-1.497251047774556376e+01 1.189871850512067786e+00 1.144808434694505328e+00 1.189871850512067786e+00 -1.045181076297162548e+01 -7.043184253454918275e-01 1.144808434694505328e+00 -7.043184253454918275e-01 -7.667491479328694126e+00
-1.331510741534531128e+01 4.469746247623714308e-01 1.046240358162780826e+00 4.469746247623714308e-01 -6.137672078487293348e+00 -1.310684593717207802e+00 1.046240358162780826e+00 -1.310684593717207802e+00 -1.059722807114232879e+01
-8.420204438361169608e+00 -2.519297140588397377e-01 4.833196151530994022e-01 -2.519297140588397377e-01 -1.441724751697532669e+00 -1.468303303488471823e+00 4.833196151530994022e-01 -1.468303303488471823e+00 -9.629569488892189000e+00
-3.713102024591766082e+00 -6.603458887167247271e-01 3.118567114862919043e-01 -6.603458887167247271e-01 6.991013301898400201e+00 -1.243075010855223983e+00 3.118567114862919043e-01 -1.243075010855223983e+00 -5.997992512649769736e+00
-1.543609579238660823e+00 -2.347080669887237347e-01 1.157218327934741886e+00 -2.347080669887237347e-01 7.822463477873626836e+00 -7.098890011770913055e-01 1.157218327934741886e+00 -7.098890011770913055e-01 -1.400009152396321399e+00
2.074351293386307027e-01 -1.478476646644091286e-01 1.540824890793802915e+00 -1.478476646644091286e-01 8.106308328033076549e+00 -4.029362274483146988e-01 1.540824890793802915e+00 -4.029362274483146988e-01 4.192052549574454723e+00
3.181296684421397458e+00 -1.309501201645311141e-01 1.717839354075048286e+00 -1.309501201645311141e-01 7.381866127786998355e+00 -1.083482266559276756e-02 1.717839354075048286e+00 -1.083482266559276756e-02 9.002407150104978939e+00
5.446502785898349686e+00 -1.985948324955599809e-01 1.616736654921723249e+00 -1.985948324955599809e-01 5.709171204452684556e+00 4.939175304477659290e-01 1.616736654921723249e+00 4.939175304477659290e-01 1.345637006794054713e+01
4.825782888048112618e+00 -2.149759185560704347e-02 9.409311506321056395e-01 -2.149759185560704347e-02 5.169370928856081626e+00 1.037175760944731295e-01 9.409311506321056395e-01 1.037175760944731295e-01 1.115786730607942268e+01
1.899842878916695676e+00 8.262139048982970746e-02 8.321961359162892702e-01 8.262139048982970746e-02 6.748706861886025088e+00 -1.226814892822084974e-01 8.321961359162892702e-01 -1.226814892822084974e-01 8.654989219466546757e+00
-5.295954855472692735e+00 -4.855958191821276859e-01 5.922182605825694335e-01 -4.855958191821276859e-01 4.435668010261690775e+00 -4.820940208250916181e-01 5.922182605825694335e-01 -4.820940208250916181e-01 1.758122693380788304e+00
-1.263441472193339798e+01 -3.342705070234043840e-01 1.699541473729680174e-01 -3.342705070234043840e-01 -3.301028224904726027e+00 -9.750479006836018092e-01 1.699541473729680174e-01 -9.750479006836018092e-01 -4.094129203183978660e+00
-1.518584266870810673e+01 1.490388120991091581e-01 1.087402906185627044e-01 1.490388120991091581e-01 -8.336120667026493791e+00 -1.061881584730179240e+00 1.087402906185627044e-01 -1.061881584730179240e+00 -8.490515703769544231e+00
-1.308576097216519685e+01 -3.980335145356293097e-02 -6.106302942857030902e-02 -3.980335145356293097e-02 -9.874623722265178927e+00 -7.712166420055148741e-01 -6.106302942857030902e-02 -7.712166420055148741e-01 -8.901994804650740889e+00
-1.232569359524512542e+01 -7.851975535999095035e-02 -9.419471204123350261e-02 -7.851975535999095035e-02 -6.195825980836462854e+00 -6.498384544237859606e-01 -9.419471204123350261e-02 -6.498384544237859606e-01 -7.510892907379465022e+00
-1.080684662993011003e+01 -1.978102442898488078e-01 -1.537243659472302959e-01 -1.978102442898488078e-01 -1.527053772008486909e+00 -7.360936773427835256e-01 -1.537243659472302959e-01 -7.360936773427835256e-01 -5.785090510914240980e+00
-6.358122876952239544e+00 -3.123078491790014510e-01 -4.582731914293304842e-01 -3.123078491790014510e-01 1.815243636446858932e+00 -1.207101244230403547e-01 -4.582731914293304842e-01 -1.207101244230403547e-01 -3.005880380853674261e+00
2.597299244658796136e-01 -1.272816206189744115e-01 -4.675885915547538518e-01 -1.272816206189744115e-01 3.181317788656189638e+00 3.268545061654676287e-01 -4.675885915547538518e-01 3.268545061654676287e-01 1.132947384485988085e+00
5.623975614068957185e+00 -7.704980675983715563e-04 -4.331743407296640980e-01 -7.704980675983715563e-04 4.205959436996427492e+00 1.862374120348427031e-01 -4.331743407296640980e-01 1.862374120348427031e-01 5.322069845027774804e+00
8.887254975874455454e+00 2.700122365118096113e-01 7.539807113870853218e-04 2.700122365118096113e-01 4.835523934409746261e+00 2.477176206339952447e-01 7.539807113870853218e-04 2.477176206339952447e-01 7.887925669879161994e+00
9.951448150693282813e+00 4.264113406762651826e-01 4.262459240623420742e-01 4.264113406762651826e-01 4.959306160994194634e+00 6.547289407960186214e-01 4.262459240623420742e-01 6.547289407960186214e-01 8.619786850643485820e+00
8.339922331427766622e+00 3.666722548878197374e-01 3.665122238309219682e-01 3.666722548878197374e-01 5.150366189977225062e+00 7.650576864240204999e-01 3.665122238309219682e-01 7.650576864240204999e-01 8.038110459780153150e+00
5.576165211089210594e+00 4.901898107440592622e-01 -1.074388480848186417e-01 4.901898107440592622e-01 2.188322179222682795e+00 4.174749548371318730e-01 -1.074388480848186417e-01 4.174749548371318730e-01 5.430122983543402171e+00
1.015880994530427239e+00 4.198646178697488240e-01 -4.124148907402210296e-01 4.198646178697488240e-01 -3.891831147328842722e+00 2.295192635875451803e-01 -4.124148907402210296e-01 2.295192635875451803e-01 1.853620276539708511e+00
-2.330818576259209074e+00 -2.066857335672632467e-01 -1.969928828318888436e-01 -2.066857335672632467e-01 -1.071170357386433736e+01 2.020991510233528521e-01 -1.969928828318888436e-01 2.020991510233528521e-01 -9.360572037216964292e-01
-3.886241104209473107e+00 -5.708575524738950246e-01 -5.475014727406082304e-01 -5.708575524738950246e-01 -1.364110480812612813e+01 1.994277686938409344e-01 -5.475014727406082304e-01 1.994277686938409344e-01 -3.187619911242077109e+00
-5.773820396176501113e+00 -7.462349069799437684e-01 -6.450830872382853354e-01 -7.462349069799437684e-01 -1.217526219705632862e+01 2.492553794429070158e-01 -6.450830872382853354e-01 2.492553794429070158e-01 -6.925158119006630031e+00
-6.646676949547648761e+00 -9.059851237364392462e-01 -3.718126340058954815e-01 -9.059851237364392462e-01 -5.740122583062780670e+00 9.682743313986791334e-02 -3.718126340058954815e-01 9.682743313986791334e-02 -8.422230946254424921e+00
-6.110974944192516745e+00 -8.020416024988001880e-01 -5.648731153606411093e-01 -8.020416024988001880e-01 -7.959433070303533198e-01 1.693109807060616534e-01 -5.648731153606411093e-01 1.693109807060616534e-01 -8.514619266499840577e+00
-3.310327764210146739e+00 -5.208814402751232864e-01 -6.038325885272475269e-01 -5.208814402751232864e-01 -1.242496925139593866e+00 3.209672001846144984e-01 -6.038325885272475269e-01 3.209672001846144984e-01 -4.066367308301325423e+00
1.252878151387998296e+00 -6.049649773334723202e-01 -1.141695113724281035e-01 -6.049649773334723202e-01 -1.467244843530532084e+00 -4.083564741916001495e-02 -1.141695113724281035e-01 -4.083564741916001495e-02 2.595327068845499685e+00
4.909246813451638047e+00 -5.965661527800025787e-01 -1.962391197255215769e-01 -5.965661527800025787e-01 -8.021140239566141306e-01 -5.910663763591955666e-01 -1.962391197255215769e-01 -5.910663763591955666e-01 5.270771376686519183e+00
3.597817877924544216e+00 -2.352915631210023562e-01 -1.928021922144049494e-01 -2.352915631210023562e-01 1.536197581714407734e-01 -6.534663774374653844e-01 -1.928021922144049494e-01 -6.534663774374653844e-01 3.510841525517677475e+00
2.642406046813216669e+00 -9.617488065254344021e-02 1.385744619276898237e-01 -9.617488065254344021e-02 5.264448469953712184e+00 -3.022095198298469509e-01 1.385744619276898237e-01 -3.022095198298469509e-01 2.551632973070772081e+00
3.003566978731463166e+00 -3.598816740721937080e-02 2.526673218115849107e-01 -3.598816740721937080e-02 9.491145864826505019e+00 3.019728088055320114e-01 2.526673218115849107e-01 3.019728088055320114e-01 3.317489282552213758e+00
3.007246506496167093e+00 -1.926443085360175500e-01 3.666049862288081607e-01 -1.926443085360175500e-01 1.052688633618633673e+01 7.327878865914302375e-01 3.666049862288081607e-01 7.327878865914302375e-01 4.256306813268824207e+00
-1.048980530788348853e+00 -2.259100269940444161e-01 9.884813245340048904e-02 -2.259100269940444161e-01 6.172271719105908439e+00 3.678691658981538826e-01 9.884813245340048904e-02 3.678691658981538826e-01 -1.828525385774873557e+00
-6.265084063865812958e+00 2.595023222399104879e-01 -4.205856963941000809e-02 2.595023222399104879e-01 -1.152950309584898525e+00 3.480613972557197178e-01 -4.205856963941000809e-02 3.480613972557197178e-01 -7.693589120021320227e+00
-9.041596783992615016e+00 -6.661240516857258598e-02 -1.172770152268450689e-01 -6.661240516857258598e-02 -8.548292166904786882e+00 4.047861050757846635e-01 -1.172770152268450689e-01 4.047861050757846635e-01 -1.114167157532500241e+01
-6.419204380197063742e+00 -7.169301959859018802e-02 -1.712210406224430603e-01 -7.169301959859018802e-02 -1.075348790141501532e+01 8.728261181002536229e-02 -1.712210406224430603e-01 8.728261181002536229e-02 -8.491058097585746367e+00
-2.284412533490957298e+00 1.098191781836899139e-01 -3.677203415044928425e-01 1.098191781836899139e-01 -9.672531309098348018e+00 -6.533626375489931526e-01 -3.677203415044928425e-01 -6.533626375489931526e-01 -3.620809618529339247e+00
-1.887173118590574461e+00 -5.708835630997585175e-01 -2.996458772244376956e-01 -5.708835630997585175e-01 -4.330360898442281226e+00 -9.454273013531430125e-01 -2.996458772244376956e-01 -9.454273013531430125e-01 -4.551673235913618498e+00
-3.467978131151871590e+00 -6.565634969088597339e-01 1.218549488003315140e-01 -6.565634969088597339e-01 -1.954441911588767233e+00 -1.334357144053892386e+00 1.218549488003315140e-01 -1.334357144053892386e+00 -7.950346210111644218e+00
-1.644895784491927637e+00 -4.589800535036899637e-02 5.455396900809426075e-01 -4.589800535036899637e-02 7.221316645854768124e-02 -1.553189481577962550e+00 5.455396900809426075e-01 -1.553189481577962550e+00 -8.561523410410154966e+00
1.519236183717647792e+00 -6.893976714818502716e-01 1.423667980889833595e+00 -6.893976714818502716e-01 9.074798127386362045e-01 -7.717943966326629157e-01 1.423667980889833595e+00 -7.717943966326629157e-01 -6.102695141747369156e+00
6.927803950154072687e+00 -8.099224910029256819e-01 1.502099164024814693e+00 -8.099224910029256819e-01 3.473803922550048107e+00 3.322291280969503213e-01 1.502099164024814693e+00 3.322291280969503213e-01 -1.082276378333643763e+00
4.913653012923311358e+00 3.276768072010975419e-01 1.826396073640954576e+00 3.276768072010975419e-01 5.909569987574332828e+00 5.062956736848834849e-01 1.826396073640954576e+00 5.062956736848834849e-01 2.120647030615206763e+00
1.431169185821755008e+00 9.997048400701255000e-01 2.190894505503833578e+00 9.997048400701255000e-01 7.421678878766271303e+00 -4.075975582123527730e-01 2.190894505503833578e+00 -4.075975582123527730e-01 1.282396808205763516e+00
-7.796061038246507868e-01 8.711664009258768271e-01 1.192215355682257449e+00 8.711664009258768271e-01 9.516821830764644830e+00 -7.084581309886749390e-01 1.192215355682257449e+00 -7.084581309886749390e-01 -2.864993318553193946e-01
-1.455175814613962171e+00 -4.444666485382371968e-01 3.860005332847355475e-01 -4.444666485382371968e-01 7.286280743116112291e+00 -2.831037347293741124e-01 3.860005332847355475e-01 -2.831037347293741124e-01 -6.132422184507233531e-01
-2.139740340289441267e+00 -1.611499144528195870e+00 1.498987998143684330e-01 -1.611499144528195870e+00 6.356155037688564491e+00 -9.755486833526366697e-01 1.498987998143684330e-01 -9.755486833526366697e-01 -1.891135470400957530e+00
-1.012260575271274776e+00 -1.152960575861460057e+00 -2.003067936862499079e-02 -1.152960575861460057e+00 -4.432552853044710695e+00 -2.133268784413643981e+00 -2.003067936862499079e-02 -2.133268784413643981e+00 -4.946298234908740099e+00