
40 atoms
15 atom types
   0.0000000000    7.9552873776 xlo xhi
   0.0000000000    8.0737567428 ylo yhi
   0.0000000000    8.0850866821 zlo zhi
  -0.0846295466    0.0423097733   -0.0641296564 xy xz yz

Atoms # atomic

     1      1   -0.0402325844    8.0367877409    0.0213183858
     2      1    0.0020751889    4.0266633261    0.0015038919
     3      1    0.0178657043    3.9862287428    4.0815946318
     4      1    3.8981044149    8.0333039596    0.0158771149
     5      1    3.9381728003    8.0077590964    4.0789363461
     6      1    3.9376493031    4.0237780416    0.0075588595
     7      1    3.9695095324    3.9941710002    4.0752052661
     8      3    0.1162371772    7.8638812673    4.2192505943
     9      9    1.9605758957    1.8978756317    2.1336086687
    10      9    2.0613327559    1.8999968203    6.1303178553
    11      9    2.0155303013    5.9855275310    2.0987286555
    12      9    2.0121970192    5.9492396255    6.1211013047
    13      9    6.0839035040    1.8561113554    6.0478229973
    14      9    6.0205249435    6.0540752638    2.1370402503
    15      9    6.0141615776    5.9338041082    6.1229370948
    16     10    5.9727401996    1.9863559576    2.0319103135
    17     15    1.9741937228    1.9596579006    8.0058388067
    18     15    0.0475439453    2.0367188878    1.9800270915
    19     15    1.9330464432    0.0135378275    2.0321909120
    20     15    1.9339642383    1.9815426834    4.0059934369
    21     15    7.9324732998    1.9540943305    6.0213554391
    22     15    1.9484075609   -0.0205034901    5.9828468454
    23     15    1.9385830136    6.0264096120    8.0330304610
    24     15    7.8668928512    6.0932051541    2.0291350284
    25     15    1.9245250889    4.0872853013    2.0171849924
    26     15    1.8673144954    6.0986664249    4.0157066848
    27     15    7.9008891690    6.0753317499    5.9886802141
    28     15    1.9488417586    4.0549937744    6.0200676460
    29     15    5.9588246741    1.9849193653    8.0044217143
    30     15    3.8710314600    2.0265438423    1.9950169112
    31     15    5.8539176362    8.0053620093    1.9766855094
    32     15    5.9279188397    2.0289289295    4.1016407244
    33     15    3.9154689219    1.9736862255    6.0348843666
    34     15    6.0112128934   -0.0093787498    6.0103716979
    35     15    5.9434311566    6.0249330199    8.0186199382
    36     15    3.8519178624    6.0635656129    2.0258710459
    37     15    5.9003417874    4.1067815969    1.9882705473
    38     15    5.9424125620    6.0728303633    4.0083425243
    39     15    3.8910104529    6.0322338808    6.0295249953
    40     15    5.9543061983    4.0687045009    6.0312338862
