7.868685735969368267e+00 0.000000000000000000e+00 -0.000000000000000000e+00 5.068970821477507965e-02 7.942135416134890491e+00 0.000000000000000000e+00 -3.604979248653859825e-02 5.210970004087451396e-02 7.849595819096678362e+00
7.869337511537551677e+00 0.000000000000000000e+00 -0.000000000000000000e+00 5.068970821477507965e-02 7.942793275654053353e+00 0.000000000000000000e+00 -3.604979248653859825e-02 5.210970004087451396e-02 7.850246013415963731e+00
7.872504089678774797e+00 0.000000000000000000e+00 -0.000000000000000000e+00 5.068970821477507965e-02 7.945989411991130069e+00 0.000000000000000000e+00 -3.604979248653859825e-02 5.210970004087451396e-02 7.853404909243408838e+00
7.879543440584151348e+00 0.000000000000000000e+00 -0.000000000000000000e+00 5.068970821477507965e-02 7.953094471210269134e+00 0.000000000000000000e+00 -3.604979248653859825e-02 5.210970004087451396e-02 7.860427182249090983e+00
7.889821305902662729e+00 0.000000000000000000e+00 -0.000000000000000000e+00 5.068970821477507965e-02 7.963468274522534252e+00 0.000000000000000000e+00 -3.604979248653859825e-02 5.210970004087451396e-02 7.870680112833134956e+00
7.901937132714316192e+00 0.000000000000000000e+00 -0.000000000000000000e+00 5.068970821477507965e-02 7.975697195647181381e+00 0.000000000000000000e+00 -3.604979248653859825e-02 5.210970004087451396e-02 7.882766545901985999e+00
7.914714246944398290e+00 0.000000000000000000e+00 -0.000000000000000000e+00 5.068970821477507965e-02 7.988593576929727824e+00 0.000000000000000000e+00 -3.604979248653859825e-02 5.210970004087451396e-02 7.895512662064502862e+00
7.927046274706532891e+00 0.000000000000000000e+00 -0.000000000000000000e+00 5.068970821477507965e-02 8.001040717116239875e+00 0.000000000000000000e+00 -3.604979248653859825e-02 5.210970004087451396e-02 7.907814771566855860e+00
7.938438583189975084e+00 0.000000000000000000e+00 -0.000000000000000000e+00 5.068970821477507965e-02 8.012539366281552944e+00 0.000000000000000000e+00 -3.604979248653859825e-02 5.210970004087451396e-02 7.919179441607393954e+00
7.949282801560388023e+00 0.000000000000000000e+00 -0.000000000000000000e+00 5.068970821477507965e-02 8.023484809228287773e+00 0.000000000000000000e+00 -3.604979248653859825e-02 5.210970004087451396e-02 7.929997351235248182e+00
7.960379360088255751e+00 0.000000000000000000e+00 -0.000000000000000000e+00 5.068970821477507965e-02 8.034684947781917330e+00 0.000000000000000000e+00 -3.604979248653859825e-02 5.210970004087451396e-02 7.941066988827079953e+00
7.971806185833005820e+00 0.000000000000000000e+00 -0.000000000000000000e+00 5.068970821477507965e-02 8.046218436408683061e+00 0.000000000000000000e+00 -3.604979248653859825e-02 5.210970004087451396e-02 7.952466092389407493e+00
7.981326974372479732e+00 0.000000000000000000e+00 -0.000000000000000000e+00 5.068970821477507965e-02 8.055828096062588983e+00 0.000000000000000000e+00 -3.604979248653859825e-02 5.210970004087451396e-02 7.961963782907840681e+00
7.986509356275128368e+00 0.000000000000000000e+00 -0.000000000000000000e+00 5.068970821477507965e-02 8.061058852535779806e+00 0.000000000000000000e+00 -3.604979248653859825e-02 5.210970004087451396e-02 7.967133592032863199e+00
7.987705546173500259e+00 0.000000000000000000e+00 -0.000000000000000000e+00 5.068970821477507965e-02 8.062266208182876426e+00 0.000000000000000000e+00 -3.604979248653859825e-02 5.210970004087451396e-02 7.968326879899938042e+00
7.986699175417473207e+00 0.000000000000000000e+00 -0.000000000000000000e+00 5.068970821477507965e-02 8.061250443531923437e+00 0.000000000000000000e+00 -3.604979248653859825e-02 5.210970004087451396e-02 7.967322950661857917e+00
7.984502452360471736e+00 0.000000000000000000e+00 -0.000000000000000000e+00 5.068970821477507965e-02 8.059033215321957044e+00 0.000000000000000000e+00 -3.604979248653859825e-02 5.210970004087451396e-02 7.965131556990179718e+00
7.981946501004298256e+00 0.000000000000000000e+00 -0.000000000000000000e+00 5.068970821477507965e-02 8.056453405621118335e+00 0.000000000000000000e+00 -3.604979248653859825e-02 5.210970004087451396e-02 7.962581806530311113e+00
7.979798701910675973e+00 0.000000000000000000e+00 -0.000000000000000000e+00 5.068970821477507965e-02 8.054285558051901717e+00 0.000000000000000000e+00 -3.604979248653859825e-02 5.210970004087451396e-02 7.960439218129694794e+00
7.979403091324930308e+00 0.000000000000000000e+00 -0.000000000000000000e+00 5.068970821477507965e-02 8.053886254667411038e+00 0.000000000000000000e+00 -3.604979248653859825e-02 5.210970004087451396e-02 7.960044567319423336e+00
7.981540984845570286e+00 0.000000000000000000e+00 -0.000000000000000000e+00 5.068970821477507965e-02 8.056044104202179312e+00 0.000000000000000000e+00 -3.604979248653859825e-02 5.210970004087451396e-02 7.962177274178920072e+00
7.986125834436796467e+00 0.000000000000000000e+00 -0.000000000000000000e+00 5.068970821477507965e-02 8.060671750741052577e+00 0.000000000000000000e+00 -3.604979248653859825e-02 5.210970004087451396e-02 7.966751000642173786e+00
7.993542226129812356e+00 0.000000000000000000e+00 -0.000000000000000000e+00 5.068970821477507965e-02 8.068157370207572399e+00 0.000000000000000000e+00 -3.604979248653859825e-02 5.210970004087451396e-02 7.974149399710760200e+00
8.003573872479636364e+00 0.000000000000000000e+00 -0.000000000000000000e+00 5.068970821477507965e-02 8.078282656237377068e+00 0.000000000000000000e+00 -3.604979248653859825e-02 5.210970004087451396e-02 7.984156708667677016e+00
8.015559985807957588e+00 0.000000000000000000e+00 -0.000000000000000000e+00 5.068970821477507965e-02 8.090380653077664519e+00 0.000000000000000000e+00 -3.604979248653859825e-02 5.210970004087451396e-02 7.996113742946387326e+00
8.028919144469616853e+00 0.000000000000000000e+00 -0.000000000000000000e+00 5.068970821477507965e-02 8.103864511843513085e+00 0.000000000000000000e+00 -3.604979248653859825e-02 5.210970004087451396e-02 8.009440491465609213e+00
8.045076507678968980e+00 0.000000000000000000e+00 -0.000000000000000000e+00 5.068970821477507965e-02 8.120172694795702029e+00 0.000000000000000000e+00 -3.604979248653859825e-02 5.210970004087451396e-02 8.025558655915601136e+00
8.065713143164281007e+00 0.000000000000000000e+00 -0.000000000000000000e+00 5.068970821477507965e-02 8.141001961468171899e+00 0.000000000000000000e+00 -3.604979248653859825e-02 5.210970004087451396e-02 8.046145225650105814e+00
8.087428814933335985e+00 0.000000000000000000e+00 -0.000000000000000000e+00 5.068970821477507965e-02 8.162920336611403371e+00 0.000000000000000000e+00 -3.604979248653859825e-02 5.210970004087451396e-02 8.067808213860423905e+00
8.105111511533408475e+00 0.000000000000000000e+00 -0.000000000000000000e+00 5.068970821477507965e-02 8.180768091069353432e+00 0.000000000000000000e+00 -3.604979248653859825e-02 5.210970004087451396e-02 8.085448011147438052e+00
8.116392885944421209e+00 0.000000000000000000e+00 -0.000000000000000000e+00 5.068970821477507965e-02 8.192154770656197016e+00 0.000000000000000000e+00 -3.604979248653859825e-02 5.210970004087451396e-02 8.096702016248995548e+00
8.120874702317735228e+00 0.000000000000000000e+00 -0.000000000000000000e+00 5.068970821477507965e-02 8.196678422221696181e+00 0.000000000000000000e+00 -3.604979248653859825e-02 5.210970004087451396e-02 8.101172959458899925e+00
8.118925755063461480e+00 0.000000000000000000e+00 -0.000000000000000000e+00 5.068970821477507965e-02 8.194711282660142260e+00 0.000000000000000000e+00 -3.604979248653859825e-02 5.210970004087451396e-02 8.099228740471408727e+00
8.111021633174967604e+00 0.000000000000000000e+00 -0.000000000000000000e+00 5.068970821477507965e-02 8.186733380315351027e+00 0.000000000000000000e+00 -3.604979248653859825e-02 5.210970004087451396e-02 8.091343794469532114e+00
8.097041213388473935e+00 0.000000000000000000e+00 -0.000000000000000000e+00 5.068970821477507965e-02 8.172622461307051722e+00 0.000000000000000000e+00 -3.604979248653859825e-02 5.210970004087451396e-02 8.077397292043800192e+00
8.076246170509003619e+00 0.000000000000000000e+00 -0.000000000000000000e+00 5.068970821477507965e-02 8.151633308597935113e+00 0.000000000000000000e+00 -3.604979248653859825e-02 5.210970004087451396e-02 8.056652699220924418e+00
8.048633416630330828e+00 0.000000000000000000e+00 -0.000000000000000000e+00 5.068970821477507965e-02 8.123762805457944935e+00 0.000000000000000000e+00 -3.604979248653859825e-02 5.210970004087451396e-02 8.029106935585634375e+00
8.014810331426193812e+00 0.000000000000000000e+00 -0.000000000000000000e+00 5.068970821477507965e-02 8.089624001100181871e+00 0.000000000000000000e+00 -3.604979248653859825e-02 5.210970004087451396e-02 7.995365907272154793e+00
7.977269281427782133e+00 0.000000000000000000e+00 -0.000000000000000000e+00 5.068970821477507965e-02 8.051732526875918339e+00 0.000000000000000000e+00 -3.604979248653859825e-02 5.210970004087451396e-02 7.957915934176477357e+00
7.939403220632231140e+00 0.000000000000000000e+00 -0.000000000000000000e+00 5.068970821477507965e-02 8.013513008063977594e+00 0.000000000000000000e+00 -3.604979248653859825e-02 5.210970004087451396e-02 7.920141738780120733e+00
7.904185344463932061e+00 0.000000000000000000e+00 -0.000000000000000000e+00 5.068970821477507965e-02 7.977966393166997072e+00 0.000000000000000000e+00 -3.604979248653859825e-02 5.210970004087451396e-02 7.885009303350998699e+00
7.873907536006115038e+00 0.000000000000000000e+00 -0.000000000000000000e+00 5.068970821477507965e-02 7.947405958687061123e+00 0.000000000000000000e+00 -3.604979248653859825e-02 5.210970004087451396e-02 7.854804950723347723e+00
7.849901330708060954e+00 0.000000000000000000e+00 -0.000000000000000000e+00 5.068970821477507965e-02 7.923175669194903570e+00 0.000000000000000000e+00 -3.604979248653859825e-02 5.210970004087451396e-02 7.830856985960044980e+00
7.832636988666813238e+00 0.000000000000000000e+00 -0.000000000000000000e+00 5.068970821477507965e-02 7.905750174397298657e+00 0.000000000000000000e+00 -3.604979248653859825e-02 5.210970004087451396e-02 7.813634528277697555e+00
7.822378137052852232e+00 0.000000000000000000e+00 -0.000000000000000000e+00 5.068970821477507965e-02 7.895395562271564138e+00 0.000000000000000000e+00 -3.604979248653859825e-02 5.210970004087451396e-02 7.803400565270471212e+00
7.819593506750023515e+00 0.000000000000000000e+00 -0.000000000000000000e+00 5.068970821477507965e-02 7.892584939037359248e+00 0.000000000000000000e+00 -3.604979248653859825e-02 5.210970004087451396e-02 7.800622690651753288e+00
7.823996463869275608e+00 0.000000000000000000e+00 -0.000000000000000000e+00 5.068970821477507965e-02 7.897028995243032590e+00 0.000000000000000000e+00 -3.604979248653859825e-02 5.210970004087451396e-02 7.805014965925494153e+00
7.834836141521826391e+00 0.000000000000000000e+00 -0.000000000000000000e+00 5.068970821477507965e-02 7.907969855086149025e+00 0.000000000000000000e+00 -3.604979248653859825e-02 5.210970004087451396e-02 7.815828345852422920e+00
7.851077283484922731e+00 0.000000000000000000e+00 -0.000000000000000000e+00 5.068970821477507965e-02 7.924362598818579961e+00 0.000000000000000000e+00 -3.604979248653859825e-02 5.210970004087451396e-02 7.832030085803329378e+00
7.871972447901064207e+00 0.000000000000000000e+00 -0.000000000000000000e+00 5.068970821477507965e-02 7.945452807640986492e+00 0.000000000000000000e+00 -3.604979248653859825e-02 5.210970004087451396e-02 7.852874557261274369e+00
7.896157599203051269e+00 0.000000000000000000e+00 -0.000000000000000000e+00 5.068970821477507965e-02 7.969863713496461166e+00 0.000000000000000000e+00 -3.604979248653859825e-02 5.210970004087451396e-02 7.877001033895009385e+00
7.921584570967744376e+00 0.000000000000000000e+00 -0.000000000000000000e+00 5.068970821477507965e-02 7.995528031496919041e+00 0.000000000000000000e+00 -3.604979248653859825e-02 5.210970004087451396e-02 7.902366318258794209e+00
7.946300580193952356e+00 0.000000000000000000e+00 -0.000000000000000000e+00 5.068970821477507965e-02 8.020474750531091601e+00 0.000000000000000000e+00 -3.604979248653859825e-02 5.210970004087451396e-02 7.927022364922164499e+00
7.969067511959637251e+00 0.000000000000000000e+00 -0.000000000000000000e+00 5.068970821477507965e-02 8.043454198581470038e+00 0.000000000000000000e+00 -3.604979248653859825e-02 5.210970004087451396e-02 7.949734062706792947e+00
7.988519001415006038e+00 0.000000000000000000e+00 -0.000000000000000000e+00 5.068970821477507965e-02 8.063087256563674643e+00 0.000000000000000000e+00 -3.604979248653859825e-02 5.210970004087451396e-02 7.969138361649805269e+00
8.003639375340581452e+00 0.000000000000000000e+00 -0.000000000000000000e+00 5.068970821477507965e-02 8.078348770529803602e+00 0.000000000000000000e+00 -3.604979248653859825e-02 5.210970004087451396e-02 7.984222052614538434e+00
8.014111161522826876e+00 0.000000000000000000e+00 -0.000000000000000000e+00 5.068970821477507965e-02 8.088918304846380636e+00 0.000000000000000000e+00 -3.604979248653859825e-02 5.210970004087451396e-02 7.994668433599023238e+00
8.020010304207584539e+00 0.000000000000000000e+00 -0.000000000000000000e+00 5.068970821477507965e-02 8.094872512653170205e+00 0.000000000000000000e+00 -3.604979248653859825e-02 5.210970004087451396e-02 8.000553264599163938e+00
8.020830194656047851e+00 0.000000000000000000e+00 -0.000000000000000000e+00 5.068970821477507965e-02 8.095700056310578319e+00 0.000000000000000000e+00 -3.604979248653859825e-02 5.210970004087451396e-02 8.001371165943076846e+00
8.015673490808588042e+00 0.000000000000000000e+00 -0.000000000000000000e+00 5.068970821477507965e-02 8.090495217583198340e+00 0.000000000000000000e+00 -3.604979248653859825e-02 5.210970004087451396e-02 7.996226972577603398e+00
8.004699065882682874e+00 0.000000000000000000e+00 -0.000000000000000000e+00 5.068970821477507965e-02 8.079418352677967263e+00 0.000000000000000000e+00 -3.604979248653859825e-02 5.210970004087451396e-02 7.985279172282438331e+00
7.989321694858461775e+00 0.000000000000000000e+00 -0.000000000000000000e+00 5.068970821477507965e-02 8.063897442690999284e+00 0.000000000000000000e+00 -3.604979248653859825e-02 5.210970004087451396e-02 7.969939107708469805e+00
7.971691913288792897e+00 0.000000000000000000e+00 -0.000000000000000000e+00 5.068970821477507965e-02 8.046103097195610232e+00 0.000000000000000000e+00 -3.604979248653859825e-02 5.210970004087451396e-02 7.952352097076598625e+00
7.954086591812324691e+00 0.000000000000000000e+00 -0.000000000000000000e+00 5.068970821477507965e-02 8.028333440114106878e+00 0.000000000000000000e+00 -3.604979248653859825e-02 5.210970004087451396e-02 7.934789487195270219e+00
7.937424879183160975e+00 0.000000000000000000e+00 -0.000000000000000000e+00 5.068970821477507965e-02 8.011516199928205850e+00 0.000000000000000000e+00 -3.604979248653859825e-02 5.210970004087451396e-02 7.918168196909422640e+00
7.922198748508352928e+00 0.000000000000000000e+00 -0.000000000000000000e+00 5.068970821477507965e-02 7.996147942034527389e+00 0.000000000000000000e+00 -3.604979248653859825e-02 5.210970004087451396e-02 7.902979005766980869e+00
7.909495400586649794e+00 0.000000000000000000e+00 -0.000000000000000000e+00 5.068970821477507965e-02 7.983326015625396010e+00 0.000000000000000000e+00 -3.604979248653859825e-02 5.210970004087451396e-02 7.890306476949873193e+00
7.900569363384606802e+00 0.000000000000000000e+00 -0.000000000000000000e+00 5.068970821477507965e-02 7.974316658972965932e+00 0.000000000000000000e+00 -3.604979248653859825e-02 5.210970004087451396e-02 7.881402094865176622e+00
7.896402681523282396e+00 0.000000000000000000e+00 -0.000000000000000000e+00 5.068970821477507965e-02 7.970111083519524797e+00 0.000000000000000000e+00 -3.604979248653859825e-02 5.210970004087451396e-02 7.877245521630664271e+00
7.897068503822609387e+00 0.000000000000000000e+00 -0.000000000000000000e+00 5.068970821477507965e-02 7.970783120889075590e+00 0.000000000000000000e+00 -3.604979248653859825e-02 5.210970004087451396e-02 7.877909728603288642e+00
7.902757694662914112e+00 0.000000000000000000e+00 -0.000000000000000000e+00 5.068970821477507965e-02 7.976525417071689716e+00 0.000000000000000000e+00 -3.604979248653859825e-02 5.210970004087451396e-02 7.883585117116044039e+00
7.913985982351508852e+00 0.000000000000000000e+00 -0.000000000000000000e+00 5.068970821477507965e-02 7.987858514402968346e+00 0.000000000000000000e+00 -3.604979248653859825e-02 5.210970004087451396e-02 7.894786164287443064e+00
7.931573636560675489e+00 0.000000000000000000e+00 -0.000000000000000000e+00 5.068970821477507965e-02 8.005610339303119716e+00 0.000000000000000000e+00 -3.604979248653859825e-02 5.210970004087451396e-02 7.912331149762223070e+00
7.954881115004810432e+00 0.000000000000000000e+00 -0.000000000000000000e+00 5.068970821477507965e-02 8.029135379725902411e+00 0.000000000000000000e+00 -3.604979248653859825e-02 5.210970004087451396e-02 7.935582082825851202e+00
7.981459686408549636e+00 0.000000000000000000e+00 -0.000000000000000000e+00 5.068970821477507965e-02 8.055962046889527883e+00 0.000000000000000000e+00 -3.604979248653859825e-02 5.210970004087451396e-02 7.962096172976763420e+00
8.008691948385449066e+00 0.000000000000000000e+00 -0.000000000000000000e+00 5.068970821477507965e-02 8.083448506455189531e+00 0.000000000000000000e+00 -3.604979248653859825e-02 5.210970004087451396e-02 7.989262367806965415e+00
8.035848687649080446e+00 0.000000000000000000e+00 -0.000000000000000000e+00 5.068970821477507965e-02 8.110858738344639107e+00 0.000000000000000000e+00 -3.604979248653859825e-02 5.210970004087451396e-02 8.016353223145845419e+00
8.062923652239430083e+00 0.000000000000000000e+00 -0.000000000000000000e+00 5.068970821477507965e-02 8.138186432241205637e+00 0.000000000000000000e+00 -3.604979248653859825e-02 5.210970004087451396e-02 8.043362502201301112e+00
8.087090151377783087e+00 0.000000000000000000e+00 -0.000000000000000000e+00 5.068970821477507965e-02 8.162578511825048011e+00 0.000000000000000000e+00 -3.604979248653859825e-02 5.210970004087451396e-02 8.067470371923143091e+00
8.105053081804747706e+00 0.000000000000000000e+00 -0.000000000000000000e+00 5.068970821477507965e-02 8.180709115931831477e+00 0.000000000000000000e+00 -3.604979248653859825e-02 5.210970004087451396e-02 8.085389723172960785e+00
8.117056314592524302e+00 0.000000000000000000e+00 -0.000000000000000000e+00 5.068970821477507965e-02 8.192824392031653247e+00 0.000000000000000000e+00 -3.604979248653859825e-02 5.210970004087451396e-02 8.097363835378365238e+00
8.124375676989071593e+00 0.000000000000000000e+00 -0.000000000000000000e+00 5.068970821477507965e-02 8.200212076489918900e+00 0.000000000000000000e+00 -3.604979248653859825e-02 5.210970004087451396e-02 8.104665440550126831e+00
8.126283367110831435e+00 0.000000000000000000e+00 -0.000000000000000000e+00 5.068970821477507965e-02 8.202137573807176452e+00 0.000000000000000000e+00 -3.604979248653859825e-02 5.210970004087451396e-02 8.106568502498529227e+00
8.121920078431235979e+00 0.000000000000000000e+00 -0.000000000000000000e+00 5.068970821477507965e-02 8.197733556324026338e+00 0.000000000000000000e+00 -3.604979248653859825e-02 5.210970004087451396e-02 8.102215799426000231e+00
8.110852135164650534e+00 0.000000000000000000e+00 -0.000000000000000000e+00 5.068970821477507965e-02 8.186562300138140458e+00 0.000000000000000000e+00 -3.604979248653859825e-02 5.210970004087451396e-02 8.091174707671848765e+00
8.092630668860897103e+00 0.000000000000000000e+00 -0.000000000000000000e+00 5.068970821477507965e-02 8.168170746869460430e+00 0.000000000000000000e+00 -3.604979248653859825e-02 5.210970004087451396e-02 8.072997447769628465e+00
8.067955011304411173e+00 0.000000000000000000e+00 -0.000000000000000000e+00 5.068970821477507965e-02 8.143264756165843110e+00 0.000000000000000000e+00 -3.604979248653859825e-02 5.210970004087451396e-02 8.048381654880547131e+00
8.038745315701216754e+00 0.000000000000000000e+00 -0.000000000000000000e+00 5.068970821477507965e-02 8.113782404762137190e+00 0.000000000000000000e+00 -3.604979248653859825e-02 5.210970004087451396e-02 8.019242823799434206e+00
8.009203068649286550e+00 0.000000000000000000e+00 -0.000000000000000000e+00 5.068970821477507965e-02 8.083964397734563434e+00 0.000000000000000000e+00 -3.604979248653859825e-02 5.210970004087451396e-02 7.989772248060940996e+00
7.982272255707155928e+00 0.000000000000000000e+00 -0.000000000000000000e+00 5.068970821477507965e-02 8.056782201057473003e+00 0.000000000000000000e+00 -3.604979248653859825e-02 5.210970004087451396e-02 7.962906770931717837e+00
7.956731218429057506e+00 0.000000000000000000e+00 -0.000000000000000000e+00 5.068970821477507965e-02 8.031002752806738698e+00 0.000000000000000000e+00 -3.604979248653859825e-02 5.210970004087451396e-02 7.937427697784935177e+00
7.930617548396206473e+00 0.000000000000000000e+00 -0.000000000000000000e+00 5.068970821477507965e-02 8.004645326602021882e+00 0.000000000000000000e+00 -3.604979248653859825e-02 5.210970004087451396e-02 7.911377381126403208e+00
7.905348354832293367e+00 0.000000000000000000e+00 -0.000000000000000000e+00 5.068970821477507965e-02 7.979140259571868121e+00 0.000000000000000000e+00 -3.604979248653859825e-02 5.210970004087451396e-02 7.886169492184602170e+00
7.884052589708130832e+00 0.000000000000000000e+00 -0.000000000000000000e+00 5.068970821477507965e-02 7.957645710662964333e+00 0.000000000000000000e+00 -3.604979248653859825e-02 5.210970004087451396e-02 7.864925391900041696e+00
7.868242682043720571e+00 0.000000000000000000e+00 -0.000000000000000000e+00 5.068970821477507965e-02 7.941688226554049379e+00 0.000000000000000000e+00 -3.604979248653859825e-02 5.210970004087451396e-02 7.849153840046843023e+00
7.858182588198650009e+00 0.000000000000000000e+00 -0.000000000000000000e+00 5.068970821477507965e-02 7.931534227487525790e+00 0.000000000000000000e+00 -3.604979248653859825e-02 5.210970004087451396e-02 7.839118152609282575e+00
7.854348675786804179e+00 0.000000000000000000e+00 -0.000000000000000000e+00 5.068970821477507965e-02 7.927664527696682839e+00 0.000000000000000000e+00 -3.604979248653859825e-02 5.210970004087451396e-02 7.835293541505894410e+00
7.857177680342202208e+00 0.000000000000000000e+00 -0.000000000000000000e+00 5.068970821477507965e-02 7.930519939391072803e+00 0.000000000000000000e+00 -3.604979248653859825e-02 5.210970004087451396e-02 7.838115682721800148e+00
7.865664601164929159e+00 0.000000000000000000e+00 -0.000000000000000000e+00 5.068970821477507965e-02 7.939086080764783837e+00 0.000000000000000000e+00 -3.604979248653859825e-02 5.210970004087451396e-02 7.846582013751048912e+00
7.877851311364556075e+00 0.000000000000000000e+00 -0.000000000000000000e+00 5.068970821477507965e-02 7.951386546932596389e+00 0.000000000000000000e+00 -3.604979248653859825e-02 5.210970004087451396e-02 7.858739158240864775e+00
7.891743461990153641e+00 0.000000000000000000e+00 -0.000000000000000000e+00 5.068970821477507965e-02 7.965408372837743833e+00 0.000000000000000000e+00 -3.604979248653859825e-02 5.210970004087451396e-02 7.872597605651468378e+00
7.906034917656231897e+00 0.000000000000000000e+00 -0.000000000000000000e+00 5.068970821477507965e-02 7.979833231066915999e+00 0.000000000000000000e+00 -3.604979248653859825e-02 5.210970004087451396e-02 7.886854389365128171e+00
7.920592563700036948e+00 0.000000000000000000e+00 -0.000000000000000000e+00 5.068970821477507965e-02 7.994526764409513930e+00 0.000000000000000000e+00 -3.604979248653859825e-02 5.210970004087451396e-02 7.901376717662233595e+00
7.935204489876389822e+00 0.000000000000000000e+00 -0.000000000000000000e+00 5.068970821477507965e-02 8.009275084557740954e+00 0.000000000000000000e+00 -3.604979248653859825e-02 5.210970004087451396e-02 7.915953194403644311e+00
7.948274442611806379e+00 0.000000000000000000e+00 -0.000000000000000000e+00 5.068970821477507965e-02 8.022467037824887015e+00 0.000000000000000000e+00 -3.604979248653859825e-02 5.210970004087451396e-02 7.928991438627583044e+00
7.958390584217248431e+00 0.000000000000000000e+00 -0.000000000000000000e+00 5.068970821477507965e-02 8.032677607826769872e+00 0.000000000000000000e+00 -3.604979248653859825e-02 5.210970004087451396e-02 7.939083037850299895e+00
7.965874373328304614e+00 0.000000000000000000e+00 -0.000000000000000000e+00 5.068970821477507965e-02 8.040231253827709423e+00 0.000000000000000000e+00 -3.604979248653859825e-02 5.210970004087451396e-02 7.946548670826867777e+00
7.971510315307125616e+00 0.000000000000000000e+00 -0.000000000000000000e+00 5.068970821477507965e-02 8.045919804100702066e+00 0.000000000000000000e+00 -3.604979248653859825e-02 5.210970004087451396e-02 7.952170939662395632e+00
7.974864333969383878e+00 0.000000000000000000e+00 -0.000000000000000000e+00 5.068970821477507965e-02 8.049305130607741887e+00 0.000000000000000000e+00 -3.604979248653859825e-02 5.210970004087451396e-02 7.955516821268493466e+00
7.974437419470832289e+00 0.000000000000000000e+00 -0.000000000000000000e+00 5.068970821477507965e-02 8.048874231107129518e+00 0.000000000000000000e+00 -3.604979248653859825e-02 5.210970004087451396e-02 7.955090942490979700e+00
7.969653702582347954e+00 0.000000000000000000e+00 -0.000000000000000000e+00 5.068970821477507965e-02 8.044045860957680816e+00 0.000000000000000000e+00 -3.604979248653859825e-02 5.210970004087451396e-02 7.950318831194690183e+00
7.961481790370334544e+00 0.000000000000000000e+00 -0.000000000000000000e+00 5.068970821477507965e-02 8.035797668619759193e+00 0.000000000000000000e+00 -3.604979248653859825e-02 5.210970004087451396e-02 7.942166744545555268e+00
7.951471133176692518e+00 0.000000000000000000e+00 -0.000000000000000000e+00 5.068970821477507965e-02 8.025693567669009099e+00 0.000000000000000000e+00 -3.604979248653859825e-02 5.210970004087451396e-02 7.932180373824112785e+00
7.941288214089641251e+00 0.000000000000000000e+00 -0.000000000000000000e+00 5.068970821477507965e-02 8.015415596856104941e+00 0.000000000000000000e+00 -3.604979248653859825e-02 5.210970004087451396e-02 7.922022159126855811e+00
7.932385169918244827e+00 0.000000000000000000e+00 -0.000000000000000000e+00 5.068970821477507965e-02 8.006429447861082238e+00 0.000000000000000000e+00 -3.604979248653859825e-02 5.210970004087451396e-02 7.913140714290125999e+00
7.925136138253853879e+00 0.000000000000000000e+00 -0.000000000000000000e+00 5.068970821477507965e-02 7.999112750632195734e+00 0.000000000000000000e+00 -3.604979248653859825e-02 5.210970004087451396e-02 7.905909269222501479e+00
7.919158713623709822e+00 0.000000000000000000e+00 -0.000000000000000000e+00 5.068970821477507965e-02 7.993079530162229496e+00 0.000000000000000000e+00 -3.604979248653859825e-02 5.210970004087451396e-02 7.899946346193882363e+00
7.915068669884233188e+00 0.000000000000000000e+00 -0.000000000000000000e+00 5.068970821477507965e-02 7.988951308204518931e+00 0.000000000000000000e+00 -3.604979248653859825e-02 5.210970004087451396e-02 7.895866225153286955e+00
7.913779526569930667e+00 0.000000000000000000e+00 -0.000000000000000000e+00 5.068970821477507965e-02 7.987650131474484105e+00 0.000000000000000000e+00 -3.604979248653859825e-02 5.210970004087451396e-02 7.894580209378982083e+00
7.915815903289932898e+00 0.000000000000000000e+00 -0.000000000000000000e+00 5.068970821477507965e-02 7.989705516607068070e+00 0.000000000000000000e+00 -3.604979248653859825e-02 5.210970004087451396e-02 7.896611645724421535e+00
7.921185317219969768e+00 0.000000000000000000e+00 -0.000000000000000000e+00 5.068970821477507965e-02 7.995125050944595912e+00 0.000000000000000000e+00 -3.604979248653859825e-02 5.210970004087451396e-02 7.901968033125442936e+00
7.929543635774970234e+00 0.000000000000000000e+00 -0.000000000000000000e+00 5.068970821477507965e-02 8.003561389621490108e+00 0.000000000000000000e+00 -3.604979248653859825e-02 5.210970004087451396e-02 7.910306073883170086e+00
7.940973734312881227e+00 0.000000000000000000e+00 -0.000000000000000000e+00 5.068970821477507965e-02 8.015098181591241655e+00 0.000000000000000000e+00 -3.604979248653859825e-02 5.210970004087451396e-02 7.921708442297703101e+00
7.955435938726077794e+00 0.000000000000000000e+00 -0.000000000000000000e+00 5.068970821477507965e-02 8.029695382409357762e+00 0.000000000000000000e+00 -3.604979248653859825e-02 5.210970004087451396e-02 7.936135560510866327e+00
7.972348208542960002e+00 0.000000000000000000e+00 -0.000000000000000000e+00 5.068970821477507965e-02 8.046765518590513366e+00 0.000000000000000000e+00 -3.604979248653859825e-02 5.210970004087451396e-02 7.953006800117930375e+00
7.991467605718952427e+00 0.000000000000000000e+00 -0.000000000000000000e+00 5.068970821477507965e-02 8.066063384402186287e+00 0.000000000000000000e+00 -3.604979248653859825e-02 5.210970004087451396e-02 7.972079812456929204e+00
8.010269346504470533e+00 0.000000000000000000e+00 -0.000000000000000000e+00 5.068970821477507965e-02 8.085040628682454766e+00 0.000000000000000000e+00 -3.604979248653859825e-02 5.210970004087451396e-02 7.990835939060015214e+00
8.025616064167142127e+00 0.000000000000000000e+00 -0.000000000000000000e+00 5.068970821477507965e-02 8.100530599175518986e+00 0.000000000000000000e+00 -3.604979248653859825e-02 5.210970004087451396e-02 8.006145424639004915e+00
8.038804651038663707e+00 0.000000000000000000e+00 -0.000000000000000000e+00 5.068970821477507965e-02 8.113842293961395669e+00 0.000000000000000000e+00 -3.604979248653859825e-02 5.210970004087451396e-02 8.019302015185708399e+00
8.052309591185162319e+00 0.000000000000000000e+00 -0.000000000000000000e+00 5.068970821477507965e-02 8.127473294999248310e+00 0.000000000000000000e+00 -3.604979248653859825e-02 5.210970004087451396e-02 8.032774191514805651e+00
8.064929077472600127e+00 0.000000000000000000e+00 -0.000000000000000000e+00 5.068970821477507965e-02 8.140210576971618650e+00 0.000000000000000000e+00 -3.604979248653859825e-02 5.210970004087451396e-02 8.045363062149474942e+00
8.073994635966515787e+00 0.000000000000000000e+00 -0.000000000000000000e+00 5.068970821477507965e-02 8.149360757268425459e+00 0.000000000000000000e+00 -3.604979248653859825e-02 5.210970004087451396e-02 8.054406627039993438e+00