7.829179801332999844e+00 5.265313790099999947e-02 7.844990098748000129e+00 1.033846616599999949e-02 4.004029503114000299e+00 3.931410651786999999e+00 3.933905450680999838e+00 7.990211090865999566e+00 7.842423496115999981e+00 3.971227856745000118e+00 3.964720120772000200e+00 5.632746755999999688e-03 7.850772458151999977e+00 4.259855665299999705e-02 3.908218968958999895e+00 7.891956468112000245e+00 3.967804953068000184e+00 1.039398032300000059e-02 3.960400634252000174e+00 7.967358288014000145e+00 3.926646653351999916e+00 3.950972757259000101e+00 4.005128614524999797e+00 3.917188710565000065e+00 1.984550468274999924e+00 2.011124385932999914e+00 1.980547274269000013e+00 1.950876536967999897e+00 2.011661559504999808e+00 5.880820444314999840e+00 1.998746534938999897e+00 5.988838149306999981e+00 1.976903811996999938e+00 1.992617451592000100e+00 5.993275916185000440e+00 5.884961721556999592e+00 5.896060729321000338e+00 1.995389979802999925e+00 1.963844588841000105e+00 5.892190291519000311e+00 2.037658195979000109e+00 5.869680385059999672e+00 5.920082747411999691e+00 5.958522384356999879e+00 1.968790163982000019e+00 5.908405544077999672e+00 5.986914612328999574e+00 5.887026899601999652e+00 1.963735145735000076e+00 2.031136238114000125e+00 2.438513251000000090e-03 7.866550105257999803e+00 1.999376510859999900e+00 1.999804493229000002e+00 1.963247148985999946e+00 1.448065318000000060e-02 1.995406078138000083e+00 1.981151422938000062e+00 2.019474326640999795e+00 3.903090956552000002e+00 -8.413596944000000313e-03 2.014729656699000060e+00 5.877767926067999582e+00 1.948357681689999898e+00 5.567158794600000210e-02 5.849311277754000393e+00 1.942346462314000100e+00 5.995419979480000272e+00 7.833637879311999619e+00 3.035545502699999940e-02 5.988526126315999676e+00 1.981188949369000030e+00 1.989254835841000046e+00 3.998346467879999810e+00 1.981336605077999913e+00 2.003147211613999890e+00 5.982862168649999646e+00 3.941260459696999785e+00 1.760747763500000035e-02 5.992654145747000172e+00 5.870512508456999790e+00 1.937571261460999894e+00 4.042108652273999958e+00 5.865551145710999670e+00 5.934694243380000067e+00 1.978737707734000040e+00 1.587453295600000161e-02 3.937587529960000055e+00 1.999872781412999956e+00 1.985486343460000080e+00 5.933622089482000206e+00 7.941120532124999798e+00 2.023487120742999856e+00 5.848864640876000109e+00 1.999032771496999983e+00 3.951431955439999921e+00 3.940632434179999866e+00 2.014562522558999813e+00 5.867035067497999634e+00 5.913260061499999942e+00 7.968405001174000191e+00 5.833403293892000185e+00 5.928034641491000123e+00 5.974095279675999848e+00 7.840440043755999788e+00 3.956611961760000185e+00 5.960555223970000149e+00 1.998846920579999908e+00 5.907387059198000223e+00 3.993966606923000207e+00 1.958005128154999941e+00 5.919182791966999702e+00 5.982738920276999828e+00 3.913962414244000154e+00 3.945627636509999814e+00 6.017826061647999936e+00 5.847728321771000104e+00 5.897332022735000123e+00 4.018366104236999803e+00 5.895962539352000320e+00
5.998113524399999869e-02 7.937741524397000425e+00 1.292888162099999939e-02 1.182950363699999952e-02 3.991294823461000174e+00 3.962498384657000106e+00 3.828353001408999923e+00 6.139056747800000075e-02 7.835907111649000001e+00 4.011960809985000154e+00 3.913582514314999816e+00 1.346773735900000032e-02 -6.961901456000000286e-03 8.670713776600000311e-02 3.880801765554000138e+00 7.889198095802999688e+00 3.961633737309000036e+00 2.238172702100000092e-02 3.914362584961999847e+00 7.960871710133999635e+00 3.932256006562000028e+00 3.974734480138999881e+00 4.035692505954999731e+00 3.873738465158000022e+00 2.057467380472000062e+00 2.035930817855000186e+00 1.985259711479999911e+00 1.957985260569000019e+00 1.985475532903000051e+00 5.922773396084999753e+00 1.988758616788000033e+00 6.050407088626999830e+00 1.973010527937000047e+00 2.009429746632999780e+00 5.938855014947000299e+00 5.849297614959000136e+00 5.890514828945000225e+00 1.959920518012000068e+00 1.926041928957999971e+00 5.898183499193000223e+00 2.066512569639999963e+00 5.856813599248999580e+00 5.905350970805000266e+00 5.935713853683999730e+00 1.912225434643999966e+00 5.912476531964999893e+00 5.973132163925000349e+00 5.935457670845000422e+00 1.920195164669999954e+00 2.227731811144999963e+00 7.845608882317000266e+00 7.807499362386000286e+00 1.993257357944000052e+00 2.053162182631000032e+00 1.973497067247999892e+00 3.494589775399999793e-02 1.937982514546999990e+00 2.042657288552999884e+00 2.111916142953000008e+00 3.834242203339000010e+00 1.648855835000000158e-02 1.958460762924000065e+00 5.867295852966999625e+00 2.004061977481999879e+00 1.458561484279999876e-01 5.815416056437999970e+00 1.919200723204999903e+00 6.029501656163000156e+00 7.783689766036999913e+00 1.077683990879999970e-01 6.028401443019999917e+00 1.988296829322000026e+00 2.002871084821999936e+00 4.058176884058999789e+00 1.973012443855999942e+00 2.047232166145999788e+00 5.973287610316000418e+00 3.999204321251999872e+00 1.377329643600000084e-02 6.047377146302999940e+00 5.867554254909999933e+00 1.833838528912999921e+00 4.146701654852999575e+00 5.808718265147000182e+00 5.977680790647999842e+00 1.882961856344999907e+00 9.047431565699999567e-02 3.883752957736999800e+00 1.983152540807999964e+00 1.885032254394999995e+00 5.861045055339999976e+00 7.920872785309000186e+00 2.118782023807999959e+00 5.694722747117999972e+00 2.010223426528999990e+00 4.046201713643999831e+00 4.006184714064000119e+00 1.962162239618999937e+00 5.969220364002000068e+00 5.857957091931999649e+00 7.927866688544000340e+00 5.776170399626000318e+00 5.948659776835000024e+00 5.882528325290000026e+00 7.810919271160999600e+00 3.974847324335999854e+00 5.943870795121999784e+00 2.015434144174999886e+00 5.847395349592999558e+00 4.013220110824000209e+00 1.918029813700999897e+00 5.904404609513999702e+00 5.929374856699999974e+00 3.878543270065999859e+00 3.988359893201999906e+00 6.060257082028999598e+00 5.859466934274999872e+00 5.902219196608999852e+00 4.047067114887999750e+00 5.987799398432000153e+00
7.162048193099999904e-02 7.934160438595999842e+00 2.798590721300000042e-02 1.220363763500000032e-02 3.983299453818000213e+00 3.991111924774000119e+00 3.779579689693000066e+00 7.152930466100000662e-02 7.830631598244999658e+00 4.049261973442000340e+00 3.868985882864000025e+00 1.943267126200000014e-02 -1.092620178000000032e-03 1.247173454620000010e-01 3.858785661229000130e+00 7.893179533430999761e+00 3.959624130313000201e+00 3.475123980599999912e-02 3.878041591410999800e+00 7.954602543583000340e+00 3.941996207717000100e+00 3.998977363789999906e+00 4.070594432044999600e+00 3.832525195414000052e+00 2.108525386055999817e+00 2.078345784104000060e+00 1.994841123115000059e+00 1.969394872992999979e+00 1.967328024129000097e+00 5.958768845053000085e+00 1.981288648118000095e+00 6.085697347461000106e+00 1.966921337073999965e+00 2.016257058323000173e+00 5.893548116708999807e+00 5.827511473517000162e+00 5.903657375370999993e+00 1.918650104998999906e+00 1.902148834639999953e+00 5.895615964802000342e+00 2.073866490288999831e+00 5.840516666175999738e+00 5.888407488332999762e+00 5.921414914655000139e+00 1.896983443282000081e+00 5.928224992099999646e+00 5.988952273933000114e+00 5.948489264692000233e+00 1.893405839683000025e+00 2.333317445383999988e+00 7.809631781162999609e+00 7.750099251295000435e+00 1.983357689138999902e+00 2.108465919641000053e+00 1.983692614513000052e+00 7.594164442299999873e-02 1.900451585712999991e+00 2.111351146902999965e+00 2.181924992184999912e+00 3.839937466779999919e+00 3.432793027699999888e-02 1.924381877537999941e+00 5.850470820937999861e+00 2.044741432341000031e+00 2.391246195439999944e-01 5.785843740616000375e+00 1.921180273514000003e+00 6.076979091994999749e+00 7.796252248386999817e+00 1.370707796220000108e-01 6.066409359317000316e+00 1.991977610875000027e+00 2.012582342938999957e+00 4.088802551172999955e+00 1.960321128259000067e+00 2.090860282426000083e+00 6.013438400299000008e+00 3.954993487669999919e+00 7.873792372708999565e+00 6.118470391894000215e+00 5.861673980257999794e+00 1.781605717494000096e+00 4.131608564249999560e+00 5.781356220852999606e+00 6.013901695084999943e+00 1.809771775001000060e+00 1.300237833000000010e-01 3.881099402698999778e+00 1.970646108758999926e+00 1.804730663431000082e+00 5.807974429234000091e+00 7.944871891956999832e+00 2.179117056168000222e+00 5.580091178637999860e+00 2.051001752259999922e+00 4.064461035625999585e+00 3.988621288486999816e+00 1.961816324233000008e+00 6.080195750348999617e+00 5.839957385093000219e+00 7.920810139309000242e+00 5.757524012846999995e+00 5.976067397979999640e+00 5.843163109469999839e+00 7.849746632347000208e+00 3.983805025287999957e+00 5.946947109733000225e+00 2.006302969859000029e+00 5.811845083520999822e+00 3.976886766597000022e+00 1.893923446080000073e+00 5.899954022213999671e+00 5.852226666874999594e+00 3.845381877461000020e+00 3.995013716396000003e+00 6.073680137383999700e+00 5.879802043397999611e+00 5.924870927417000388e+00 3.995587250613000130e+00 6.061499787996999622e+00
8.177027374699999407e-02 7.934170420793000389e+00 3.952252660899999853e-02 1.010626874500000077e-02 3.980438210482000194e+00 4.014945520357000142e+00 3.740349576158000122e+00 7.665402019200000250e-02 7.828633764080000113e+00 4.082643047500000399e+00 3.834710992608000080e+00 2.260962120600000166e-02 -3.973391179999999877e-04 1.552695057279999957e-01 3.844114138790000190e+00 2.546489457299999995e-02 3.961810363717999994e+00 4.849750360900000057e-02 3.854862435403000109e+00 7.951605199679000258e+00 3.955474786229999928e+00 4.024068004416999855e+00 4.109575436726999875e+00 3.794539820548000097e+00 2.131417345040000022e+00 2.138946602487000082e+00 2.012135455464000078e+00 1.985530846752999956e+00 1.984623713763999930e+00 5.982045235221000290e+00 1.980061493271999984e+00 6.091548069802000143e+00 1.954446556826999970e+00 2.015053602981999870e+00 5.864374050703999863e+00 5.826826807627999649e+00 5.930206038505000166e+00 1.876886987010000007e+00 1.903022084679999892e+00 5.882719145437000030e+00 2.057281344438000037e+00 5.824498197535000088e+00 5.866373294528999693e+00 5.914510793228999752e+00 1.930412667631999923e+00 5.953095222430000000e+00 6.036139548908000307e+00 5.926475180086000272e+00 1.840694435994000067e+00 2.374999906990999943e+00 7.792305556838999614e+00 7.742926796709999948e+00 1.973545166552999941e+00 2.170080800515000075e+00 1.988048703640000081e+00 1.362649234140000110e-01 1.896484796740999901e+00 2.183408683336999889e+00 2.216727424344000053e+00 3.892440683698000115e+00 6.747991624000000167e-03 1.914857901016999930e+00 5.819809080955000269e+00 2.061345215659000196e+00 2.212740999410000020e-01 5.762134190982999726e+00 1.945829197164999913e+00 6.124986585575999953e+00 7.828761549241000317e+00 9.681520041600000237e-02 6.101395172302000347e+00 1.997947451224999948e+00 2.014940873783999997e+00 4.083818994235000055e+00 1.946074213391999930e+00 2.123764415305000153e+00 6.099205265485999838e+00 3.867417579730000110e+00 7.878258984200999571e+00 6.188714868803000257e+00 5.847707243197000082e+00 1.790821371662999928e+00 4.057164840137000184e+00 5.790065167192000040e+00 6.041975349368000181e+00 1.764737510158999934e+00 8.532305829899999861e-02 3.917248284129999814e+00 1.967573470537000047e+00 1.756694073954000013e+00 5.739226766836999616e+00 2.768433963100000103e-02 2.202859397119000029e+00 5.518114096707999572e+00 2.115180279036000144e+00 4.023770163298999947e+00 3.925383215647999968e+00 2.019239174901000133e+00 6.183506664463999769e+00 5.860314658420000100e+00 7.927352259489000019e+00 5.777649837664999843e+00 6.049974454694999615e+00 5.823253548814999903e+00 5.095914514000000201e-02 3.987267286995999971e+00 5.975042419762999657e+00 1.966899441191999998e+00 5.815525525252000172e+00 3.912651561714000081e+00 1.892631357501999956e+00 5.912089835480999866e+00 5.760066416742000150e+00 3.853558432814999879e+00 3.956660563689000210e+00 6.043810517599999876e+00 5.902796865370000035e+00 5.975308572486000003e+00 3.905736624819999836e+00 6.103937132287000189e+00
9.033581635199999793e-02 7.938758725719000431e+00 4.709705672000000232e-02 7.894662317262000073e+00 3.980530029992999985e+00 4.032614314304000303e+00 3.711936166436000217e+00 7.661994281099999970e-02 7.830614634310999911e+00 4.112952554924000026e+00 3.813142035482000036e+00 2.262692893199999902e-02 -5.349662630000000339e-04 1.774560633889999961e-01 3.837418476135999956e+00 3.012070661799999896e-02 3.966715624138999807e+00 6.392337484099999689e-02 3.842512158324999927e+00 7.955186552953000145e+00 3.969763349623999904e+00 4.047859742428999930e+00 4.148163528034999992e+00 3.761419052642000160e+00 2.135618045969000178e+00 2.199728491185000134e+00 2.041022188202000098e+00 2.000359797391999983e+00 2.025056755656999830e+00 5.984761544770000441e+00 1.974624924623999966e+00 6.082373463859999774e+00 1.936644419944000051e+00 2.011597724886999838e+00 5.854812761915000330e+00 5.842606844827000323e+00 5.958542942494999828e+00 1.845692691987000034e+00 1.917297938661999934e+00 5.866676047039000252e+00 2.027435761738999975e+00 5.812635633432999605e+00 5.848995247012999776e+00 5.911192353405000155e+00 1.990652292622999919e+00 5.982121730702999685e+00 6.102113249439000242e+00 5.887909824675999992e+00 1.766992087140000001e+00 2.343949141387000168e+00 7.833418690379000182e+00 7.810438257670000439e+00 1.972019298641999985e+00 2.228632731834999881e+00 1.982088996739000075e+00 1.851070966539999918e-01 1.925899209902999898e+00 2.251174494928999792e+00 2.217170816931000044e+00 3.937793964587999795e+00 7.826200230853999962e+00 1.915992079959000005e+00 5.765666449681999595e+00 2.047976448663999971e+00 1.101302596720000054e-01 5.754730165139999798e+00 1.973253615515000003e+00 6.144324726603000109e+00 7.834172737179000201e+00 7.917419372533999855e+00 6.123687675511000350e+00 2.011472129184999957e+00 2.007788783455000114e+00 4.068390333426999739e+00 1.935611423848000001e+00 2.132665129259999848e+00 6.183913282528999744e+00 3.828292594474000055e+00 1.586743248600000142e-02 6.223576198900000023e+00 5.822956764566000309e+00 1.850495424608999961e+00 4.034514295668000017e+00 5.825175514927999565e+00 6.060858341444999908e+00 1.747646249608999947e+00 1.107189016999999892e-03 3.933843893500999833e+00 1.980751662924000067e+00 1.748613400203999912e+00 5.810730858657000120e+00 7.977429236589999917e+00 2.209766505650000212e+00 5.508299545158999777e+00 2.169908669035999882e+00 3.976486624519000035e+00 3.869241516404999803e+00 2.100648986398999885e+00 6.238247143836000319e+00 5.888599253869999828e+00 7.918248980283999927e+00 5.809340154185999694e+00 6.087962253917000410e+00 5.915036995820000421e+00 5.778353504000000029e-02 3.989669115378999820e+00 6.016949043711999678e+00 1.913995135051999918e+00 5.859498014186000248e+00 3.880421649487999947e+00 1.911087258288000079e+00 5.928299267615000367e+00 5.685581334195999759e+00 3.937138216905000210e+00 3.905256470779999933e+00 5.971139993100000432e+00 5.914218893189000070e+00 6.045406764745999695e+00 3.856735484236000211e+00 6.113132894150999697e+00
9.761280896599999757e-02 7.947185112971999921e+00 5.006793302399999840e-02 7.898652323884999937e+00 3.982068828135000071e+00 4.044909338237999918e+00 3.693737147519000175e+00 7.182084729500000375e-02 7.835967155444000021e+00 4.141483670160999608e+00 3.806920968894000001e+00 1.947519302200000080e-02 4.262964773999999672e-03 1.886124749789999944e-01 3.839547356355999863e+00 3.015578480000000172e-02 3.974099887192999780e+00 7.981327463500000052e-02 3.835728275660000186e+00 7.966157761941000004e+00 3.982149782819000006e+00 4.066345581343999704e+00 4.181360200886000023e+00 3.736779788733000096e+00 2.125113321479000117e+00 2.231734704837000205e+00 2.077879985370000071e+00 2.005196886259999811e+00 2.055666505331999794e+00 5.970540233307000122e+00 1.954528191639000045e+00 6.076210663361999664e+00 1.923162918797000076e+00 2.013032433394000176e+00 5.879754659162999886e+00 5.868560090373000193e+00 5.986715594598999601e+00 1.832208745937000005e+00 1.931746606970000002e+00 5.863130128405999564e+00 2.008790651516000114e+00 5.808524790359999912e+00 5.853830335595000101e+00 5.911605225980999911e+00 2.041653517913000204e+00 6.014894494504000377e+00 6.160624602656000093e+00 5.855968872255999713e+00 1.726698132866000046e+00 2.195159789203000145e+00 1.199843295800000036e-02 7.895520099027000249e+00 1.985463042914999976e+00 2.260063076755999933e+00 1.969652571302000110e+00 1.856986438050000077e-01 1.974920880518999944e+00 2.302407644261999842e+00 2.195983649902999879e+00 3.965909486600000200e+00 7.772420195359000417e+00 1.908741061583999921e+00 5.686631857393000367e+00 2.063437545844999832e+00 8.009926541882000706e+00 5.779265777544000393e+00 1.979775272766000072e+00 6.117648641537999588e+00 7.830216492474000312e+00 7.884633382745000141e+00 6.119604819884999714e+00 2.034956454361999789e+00 1.992909183527000083e+00 4.090510513711000051e+00 1.935562087784999941e+00 2.113572702293999850e+00 6.218184185695999844e+00 3.832806339558000097e+00 3.789320038700000337e-02 6.203767288133000157e+00 5.790074132434999576e+00 1.922125133021999943e+00 4.059568246670999692e+00 5.874482322437000192e+00 6.027567249601999855e+00 1.806690504117999918e+00 7.853071516791000128e+00 3.928892150743999778e+00 2.008118281065999877e+00 1.779331737801000068e+00 5.865947542765000300e+00 7.938690740486999964e+00 2.218302625870999911e+00 5.541883675088000061e+00 2.178844387503999780e+00 3.945567792418999797e+00 3.835846466976999825e+00 2.152874028985999999e+00 6.214511095326000323e+00 5.888723307253999728e+00 7.922707975698999761e+00 5.818638617134999969e+00 6.104767901559999821e+00 6.033014097790999841e+00 3.101618957600000073e-02 3.992978764620000121e+00 6.051472639316999746e+00 1.877056644248999984e+00 5.934186101142000069e+00 3.913426112988000138e+00 1.937168223278000090e+00 5.928894516797000414e+00 5.664253945769999632e+00 4.052567213157000303e+00 3.887101952709000052e+00 5.877569245663999631e+00 5.903586796362000122e+00 6.110318217715000166e+00 3.860206750880999849e+00 6.097150803433000199e+00
1.035260255460000028e-01 7.957946566286000056e+00 4.811962025600000081e-02 7.901428699470000261e+00 3.985690330706999962e+00 4.053447828601999703e+00 3.684946313938000095e+00 6.267592198499999379e-02 7.844315762473000220e+00 4.168346584688999990e+00 3.817240143295999921e+00 1.263520693100000057e-02 1.694619253800000100e-02 1.856737650879999868e-01 3.850408769212999793e+00 7.939411219543999643e+00 3.984363713734000001e+00 9.447671594499999770e-02 3.830863932724000165e+00 7.982555724404999609e+00 3.990787349909000081e+00 4.075884678728000310e+00 4.205903960967000366e+00 3.724392218713000080e+00 2.098723644600000160e+00 2.220973885162000006e+00 2.111778913609000163e+00 1.996439349087000048e+00 2.071304232226999886e+00 5.950985570491999610e+00 1.920554635221999984e+00 6.082931426316999790e+00 1.927848795557000061e+00 2.024079443345999874e+00 5.939892272826999609e+00 5.895229691286999696e+00 6.014197044009000237e+00 1.833115981353000024e+00 1.947993799892999922e+00 5.882375587700000352e+00 2.020439759483000142e+00 5.809456824968999733e+00 5.889015327593000393e+00 5.920667363840999897e+00 2.058819100565000060e+00 6.050489279131999965e+00 6.186515879135000340e+00 5.856002205875999955e+00 1.672993203624999925e+00 2.064242375962999976e+00 2.714742342300000000e-02 2.005658383499999906e-02 2.013356784414999989e+00 2.249840503120000168e+00 1.959230521058999974e+00 1.305097448439999919e-01 2.027624024314000017e+00 2.319166308273000077e+00 2.166889972464999925e+00 3.985508716502999871e+00 7.763579357984999874e+00 1.882018009070000053e+00 5.600544227002999698e+00 1.974535413439999942e+00 5.162580292399999993e-02 5.834551253289999906e+00 1.953843777741000043e+00 6.057518418977999808e+00 7.852533693552000038e+00 7.898337869550999812e+00 6.085681021581000216e+00 2.062796307895999881e+00 1.976830780718999980e+00 4.139568332459999667e+00 1.948790888261999976e+00 2.075764390315999908e+00 6.182359988760000036e+00 3.845142395744999941e+00 4.310626924400000337e-02 6.142411391407000210e+00 5.760036161937000188e+00 1.960525620045999950e+00 4.064500193406000328e+00 5.929081213324000288e+00 6.047715619223000161e+00 1.782453344944999962e+00 3.193875567900000129e-02 3.932097350344999853e+00 2.041510986845000097e+00 1.837328810412999891e+00 5.945890393134000362e+00 7.924847250955999733e+00 2.235177856442000177e+00 5.604792005983999736e+00 2.133255262485000081e+00 3.927039945601999982e+00 3.830841551562000014e+00 2.144512648806999877e+00 6.122329583864000391e+00 5.846597321854999585e+00 7.993020408491999795e+00 5.788685466776000155e+00 6.088687564896000382e+00 6.138859129487999944e+00 7.951187764000000602e-03 4.005396465590999711e+00 6.061138284801000253e+00 1.878764207731999925e+00 6.020498294002999629e+00 4.000397191258000085e+00 1.958087328391999948e+00 5.904937502137999950e+00 5.705266892853000371e+00 4.096376665258000038e+00 3.922403821181000172e+00 5.802130949469000321e+00 5.873483327303000046e+00 6.146554282323999807e+00 3.879605677367000016e+00 6.074573728905999559e+00
1.069825283399999938e-01 7.969910270209999759e+00 4.175735282399999776e-02 7.903151267851000306e+00 3.992768421066000162e+00 4.058369349666000048e+00 3.736466115279000189e+00 8.051263910564999904e+00 7.855791959221999576e+00 4.191574489190999842e+00 3.842046590698999786e+00 1.435938637999999937e-03 3.591123413800000053e-02 1.675720669109999894e-01 3.867858022701000209e+00 7.944023340464999805e+00 3.996509091191999818e+00 1.074661969190000010e-01 3.828872616506000082e+00 8.001657081572000507e+00 3.994532949676000033e+00 4.074690641920000189e+00 4.220194541464000082e+00 3.724976807886000163e+00 2.061727663337999950e+00 2.178120391978000114e+00 2.131584096500999781e+00 1.978258062986999910e+00 2.080996905444000067e+00 5.937186276394999851e+00 1.881869254117999990e+00 6.099048464334999586e+00 1.958317607823000017e+00 2.048941901427999923e+00 6.010152032016000234e+00 5.914088176764000337e+00 6.036977762547000026e+00 1.838839876460000022e+00 1.974387847647999905e+00 5.920581978800999678e+00 2.057425489656000028e+00 5.805055439050000210e+00 5.943698492998000127e+00 5.944813429109999880e+00 2.040539087880000046e+00 6.079479436679999793e+00 6.188104862250000338e+00 5.892687890793999905e+00 1.627835129199999953e+00 1.997506654816999960e+00 7.906308486196000018e+00 7.925257107392000400e+00 2.046475443687000073e+00 2.205603471438000174e+00 1.954254422153999915e+00 4.827975444500000324e-02 2.072881756490000171e+00 2.280232178443999835e+00 2.135359324901000111e+00 3.980257058575999984e+00 7.809133258292000335e+00 1.846697809281000024e+00 5.543144627833999749e+00 1.947002069697000071e+00 1.159537026150000011e-01 5.901556936547000198e+00 1.902271634229000030e+00 5.996614238620000314e+00 7.888133379465999795e+00 7.949616078413000331e+00 6.037218459733000309e+00 2.079339152090999843e+00 1.967597140909000064e+00 4.134022001353000242e+00 1.973971127360000022e+00 2.035258587234999972e+00 6.093175060143999566e+00 3.880791372627999891e+00 2.448170467899999855e-02 6.072303938965999848e+00 5.749363044453000171e+00 1.941129659358999948e+00 4.040554559128000101e+00 5.983895894170999874e+00 6.022676122025999668e+00 1.831400959390000027e+00 1.430422486690000050e-01 3.938321621401999817e+00 2.074670021929999830e+00 1.905748691971999920e+00 6.039829569205999782e+00 7.976343619725000167e+00 2.254044851929999815e+00 5.682178707473999779e+00 2.064982047496000117e+00 3.920910742688000106e+00 3.860007793060999948e+00 2.084624100982999995e+00 6.007180035292999598e+00 5.730238423459000252e+00 7.315113248500000609e-02 5.734794105687000432e+00 6.011675261908999701e+00 6.258755803110999771e+00 7.896266331850999798e+00 4.035382583369999665e+00 6.045560793275000400e+00 1.920443854029000086e+00 6.095482487626999735e+00 4.101562147380000134e+00 1.963973355365000062e+00 5.870251427281999668e+00 5.801261952715999648e+00 4.028555117807999686e+00 3.974297798140999927e+00 5.780337813731000196e+00 5.842074869288000016e+00 6.147521790757999760e+00 3.898905087151999904e+00 6.063870343000999696e+00
1.064573596190000054e-01 7.983493574470999832e+00 3.168200345700000059e-02 7.904643692299000435e+00 4.004116456651999556e+00 4.058500436529000055e+00 3.748000545127000205e+00 8.048951153043999440e+00 7.870941794915999878e+00 4.172382939874999863e+00 3.929764134103999940e+00 7.906014591678999892e+00 5.668541695999999852e-02 1.355098795440000115e-01 3.889804425857999792e+00 7.950392565696000169e+00 4.008313976756999963e+00 1.193935666809999990e-01 3.834496850344999874e+00 8.022419824509000819e+00 3.993533520505999856e+00 4.063732768712999821e+00 4.224459591357000221e+00 3.736076465308999950e+00 2.025142661299999869e+00 2.126758396170000065e+00 2.130532926738999855e+00 1.959672443017999921e+00 2.096820232739000200e+00 5.937519443494999827e+00 1.855479267416999978e+00 6.107285938375000001e+00 2.009639739654999868e+00 2.085715279412000189e+00 6.063680150950999881e+00 5.922781535026000022e+00 6.049036224188999888e+00 1.844478609802999935e+00 2.019216046682999810e+00 5.963584937984999890e+00 2.095969782380000090e+00 5.784872858777999838e+00 5.994047731134999779e+00 5.988287646682000087e+00 2.006501056382000048e+00 6.088594992784000404e+00 6.185270041294000265e+00 5.939486989355000190e+00 1.673908366583999996e+00 1.926003701111000055e+00 7.866694813239999640e+00 7.915829557251999660e+00 2.071881414371000041e+00 2.145980737714999975e+00 2.001010856094000090e+00 7.983621847571000352e+00 2.105521553961000158e+00 2.173849042321999825e+00 2.096021539966999914e+00 3.943143060999000138e+00 7.887092131486999946e+00 1.828379834935000003e+00 5.549788868379000206e+00 1.934858661318000106e+00 1.182153489960000026e-01 5.951256582462000289e+00 1.845009860296999982e+00 5.966844001366999883e+00 7.905755821880999790e+00 7.060237880399999888e-02 6.002035421650999680e+00 2.069621829466000040e+00 1.967887845049000051e+00 4.035598806060000321e+00 2.004702032758999941e+00 2.005764825395000006e+00 5.985166444977999767e+00 3.971007496579999962e+00 7.925308785453999860e+00 6.029720343932000404e+00 5.773315401086000165e+00 1.875264962521000056e+00 4.013867987421999572e+00 6.034227335347000398e+00 6.000711027079000282e+00 1.897976482862999914e+00 2.005642802629999943e-01 3.924752353081999878e+00 2.098079177014999797e+00 1.967232591863999902e+00 6.088204944751000269e+00 5.304557350700000312e-02 2.255698331241999810e+00 5.765448721811999633e+00 2.028050991450999874e+00 3.946954982508999787e+00 3.911657900574999847e+00 2.010171374921999821e+00 5.912580407342000299e+00 5.683566702891999611e+00 6.537505886899999674e-02 5.698193188391999620e+00 5.965651460427999986e+00 6.282473157119000007e+00 7.868173048251000168e+00 4.073161618100000325e+00 6.021627405462999683e+00 1.978640845374999957e+00 6.144449332906999572e+00 4.171768455941999854e+00 1.945968600422000039e+00 5.853888426710000203e+00 5.942204565577999809e+00 3.922381639269000075e+00 3.986598972357000115e+00 5.824919920632999570e+00 5.832377579070000095e+00 6.122091793703999585e+00 3.930878116683000023e+00 6.070311319546999762e+00