-2.919757265669999833e+04
-2.919609768009999971e+04
-2.919523021290000179e+04
-2.919520391450000170e+04
-2.919491483819999848e+04
-2.919438986460000160e+04
-2.919472965739999927e+04
-2.919502761639999881e+04
-2.919485234180000043e+04
-2.919482382449999932e+04
-2.919474244900000122e+04
-2.919505383230000007e+04
-2.919471876179999890e+04
-2.919388920030000008e+04
-2.919311405020000166e+04
-2.919335425530000066e+04
-2.919289520310000080e+04
-2.919184717939999973e+04
-2.919034485000000132e+04
-2.919076051609999922e+04
-2.919181048530000044e+04
-2.919087282960000084e+04
-2.919099258779999946e+04
-2.919004910340000060e+04
-2.918961845570000150e+04
-2.919019675139999890e+04
-2.918936464369999885e+04
-2.918999995259999923e+04
-2.919001825380000082e+04
-2.918965826680000100e+04
-2.918981911400000172e+04
-2.918967196100000001e+04
-2.918950165660000130e+04
-2.919033348589999878e+04
-2.919195961549999993e+04
-2.919225266660000125e+04
-2.919322446510000009e+04
-2.919351822979999997e+04
-2.919354782409999825e+04
-2.919335943240000051e+04
-2.919330564690000028e+04
-2.919384557839999979e+04
-2.919380206339999859e+04
-2.919391791039999953e+04
-2.919413150780000069e+04
-2.919518421129999842e+04
-2.919524711810000008e+04
-2.919545282329999827e+04
-2.919508704539999962e+04
-2.919527461989999938e+04
-2.919540725100000054e+04
-2.919551565729999857e+04
-2.919503690809999898e+04
-2.919502666930000123e+04
-2.919478680750000058e+04
-2.919470841529999961e+04
-2.919452506999999969e+04
-2.919457532820000051e+04
-2.919488475889999972e+04
-2.919504067249999935e+04
-2.919493842840000070e+04
-2.919489434830000027e+04
-2.919433483939999860e+04
-2.919425994789999822e+04
-2.919419319909999831e+04
-2.919353599480000048e+04
-2.919300788230000035e+04
-2.919244067720000021e+04
-2.919289832970000134e+04
-2.919242524760000015e+04
-2.919227225460000045e+04
-2.919236053739999988e+04
-2.919226050899999973e+04
-2.919115238289999979e+04
-2.919049883190000037e+04
-2.919091657000000123e+04
-2.919026669050000055e+04
-2.919008849090000149e+04
-2.919017220150000139e+04
-2.918979525179999837e+04
-2.918978425780000180e+04
-2.919050867469999866e+04
-2.919038599329999852e+04
-2.919033884079999916e+04
-2.919128112939999846e+04
-2.919118526510000083e+04
-2.919172271030000047e+04
-2.919179600500000015e+04
-2.919194592380000176e+04
-2.919249396479999996e+04
-2.919361024449999968e+04
-2.919391775509999934e+04
-2.919363860940000086e+04
-2.919390030499999921e+04
-2.919427038410000023e+04
-2.919413117090000014e+04
-2.919399082899999848e+04
-2.919491488300000128e+04
-2.919490887179999845e+04
-2.919462176980000004e+04
-2.919494626069999867e+04
-2.919526155189999918e+04
-2.919502490469999975e+04
-2.919477485009999873e+04
-2.919487231320000137e+04
-2.919499520639999901e+04
-2.919490294210000138e+04
-2.919451717899999858e+04
-2.919481998210000165e+04
-2.919501122449999821e+04
-2.919471467800000028e+04
-2.919474069869999948e+04
-2.919486699260000023e+04
-2.919476890479999929e+04
-2.919407671580000169e+04
-2.919365235960000064e+04
-2.919325233600000138e+04
-2.919371304170000076e+04
-2.919372414429999844e+04
-2.919323561260000133e+04
-2.919298854550000033e+04
-2.919290710870000112e+04
-2.919282443000000058e+04
-2.919254132659999959e+04
-2.919144279390000156e+04
-2.919142231529999844e+04
-2.919160966149999877e+04
-2.919012680259999979e+04
-2.918975349980000101e+04
-2.919078260930000033e+04
-2.919129200770000170e+04
-2.918973077940000076e+04
-2.918981153510000149e+04
-2.919197538400000121e+04
-2.919139153860000079e+04
-2.919035245589999977e+04
-2.918995342270000037e+04
-2.919156463159999839e+04
-2.919236050420000174e+04
-2.919166095309999946e+04
-2.919269000759999835e+04
-2.919297060280000005e+04
-2.919263964539999870e+04
-2.919286191219999819e+04
-2.919353941670000131e+04
-2.919385633059999964e+04
-2.919367030199999863e+04
-2.919364933079999901e+04
-2.919415182679999998e+04
-2.919441973739999958e+04
-2.919476075349999883e+04
-2.919452807160000157e+04
-2.919468297710000115e+04
-2.919534816169999976e+04
-2.919511218620000000e+04
-2.919490056370000093e+04
-2.919485616210000080e+04
-2.919524215980000008e+04
-2.919510791249999966e+04
-2.919481518950000100e+04
-2.919504371719999835e+04
-2.919469382770000084e+04
-2.919408322430000044e+04
-2.919474414160000015e+04
-2.919503988020000179e+04
-2.919447205039999972e+04
-2.919469581340000150e+04
-2.919452845969999908e+04
-2.919393857679999928e+04
-2.919390850560000035e+04
-2.919418168069999956e+04
-2.919376200099999915e+04
-2.919321834870000021e+04
-2.919248965799999860e+04
-2.919281551659999968e+04
-2.919211596880000070e+04
-2.919216692170000169e+04
-2.919220566609999878e+04
-2.919213249110000106e+04
-2.919104806040000040e+04
-2.919150490269999864e+04
-2.919132591419999881e+04
-2.919207231590000083e+04
-2.919075000240000008e+04
-2.919077357760000086e+04
-2.919153532070000074e+04
-2.919100218840000161e+04
-2.919105145080000148e+04
-2.919140395039999930e+04
-2.919132871489999889e+04
-2.919223480239999844e+04
-2.919270146540000133e+04
-2.919284157829999822e+04
-2.919225625550000041e+04
-2.919232167760000084e+04
-2.919359257609999986e+04
-2.919379220530000021e+04
-2.919380478030000086e+04
-2.919365484379999907e+04
-2.919382793189999938e+04
-2.919436755609999818e+04
-2.919433732930000042e+04
-2.919448786109999855e+04
-2.919437709019999966e+04
-2.919483254490000036e+04
-2.919480087780000031e+04
-2.919472497640000074e+04
-2.919491165069999988e+04
-2.919488254569999845e+04
-2.919490905859999839e+04
-2.919485723059999873e+04
-2.919449884430000020e+04
-2.919476976970000032e+04
-2.919437980289999905e+04
-2.919511896609999894e+04
-2.919468269380000129e+04
-2.919421504600000117e+04
-2.919459201459999895e+04
-2.919488119050000023e+04
-2.919362519790000079e+04
-2.919383518740000000e+04
-2.919376327970000057e+04
-2.919388556880000033e+04
-2.919374678259999928e+04
-2.919293985629999952e+04
-2.919220892910000111e+04
-2.919205976720000035e+04
-2.919307592880000084e+04
-2.919196320619999824e+04
-2.919185746419999850e+04
-2.919171170229999916e+04
-2.919173429939999914e+04
-2.919215806190000148e+04
-2.919165229069999987e+04
-2.919220149590000074e+04
-2.919136017749999883e+04
-2.919080267549999917e+04
-2.919158238480000000e+04
-2.919129779430000053e+04
-2.919106718610000098e+04
-2.919109343609999996e+04
-2.919255722819999937e+04
-2.919251519209999969e+04
-2.919227699829999983e+04
-2.919233622219999961e+04
-2.919351219969999875e+04
-2.919330627169999934e+04
-2.919281999970000106e+04
-2.919388222640000095e+04
-2.919376611540000158e+04
-2.919382385789999898e+04
-2.919381496350000089e+04
