-4.989808749599999871e-02 -7.228234147300000023e-02 1.096982831000000054e-02 2.902825762500000142e-02 1.125041830340000049e-01 -5.220211645799999883e-02 1.841995902259999929e-01 2.321174959899999918e-02 9.081365161000000755e-03 -1.970406786299999935e-01 6.736911463099999609e-02 -9.282360108600000437e-02 -1.045888379519999967e-01 -1.798871899789999951e-01 8.143648929800000047e-02 1.075463677560000025e-01 9.781437003300000321e-02 -3.902086525799999817e-02 1.503127357279999965e-01 -3.061041840199999961e-02 5.498392020199999869e-02 -9.072330753900000044e-02 3.239671901900000039e-02 5.105999386800000317e-02 -2.350981784860000090e-01 1.713675534619999996e-01 9.116229823799999743e-02 8.904578182300000588e-02 1.772806822640000113e-01 -1.148756499100000023e-01 -2.036473812559999874e-01 -2.396977231840000111e-01 2.660489551949999920e-01 -4.126421139149999973e-01 -3.049316178929999954e-01 -2.653624143589999873e-01 2.563451779529999919e-01 -1.677757997550000102e-01 1.812125099040000076e-01 -1.851667870289999962e-01 -3.410546423660000270e-01 -2.166505279239999970e-01 2.197448128879999907e-01 1.907769027139999962e-01 4.240218413919999985e-01 3.639505017779999796e-01 3.888682843979999748e-01 -3.976258441850000214e-01 -4.440337961500000208e-02 -1.155202384940000049e-01 -1.468084820799999968e-01 -7.532847210599999399e-02 -3.710532383199999923e-02 -7.044232763299999867e-02 3.628308544400000307e-02 6.564854671500000571e-02 3.362248350699999916e-02 1.026116344049999990e-01 -8.316084601499999784e-02 3.860710462510000274e-01 3.600368014400000261e-02 4.672191206600000146e-02 -4.021719248800000035e-02 -2.686785741399999941e-02 2.708161072759999732e-01 -4.790199722599999821e-02 1.215783679530000050e-01 7.260197682199999447e-02 3.323331250150000082e-01 5.209517924300000047e-02 -4.992890017599999758e-02 -7.040066805399999850e-02 -7.650891275000000144e-03 -1.327668336939999971e-01 -7.282016868200000270e-02 5.826292863399999689e-02 2.108357425479999991e-01 -4.104803501379999942e-01 -1.974134877869999916e-01 1.527542251790000027e-01 2.625897992100000022e-02 2.867524062749999825e-01 -5.127575756750000213e-01 7.953364534699999822e-02 1.578988933800000091e-02 7.361107090000000575e-02 3.758111777200000281e-02 3.361437919400000335e-02 1.027685886999999895e-03 6.087668040799999736e-02 -3.760325057799999982e-02 3.043904324119999782e-01 -1.295868029189999882e-01 1.526984877489999948e-01 1.374775489320000099e-01 -3.240274158429999884e-01 -4.313643169729999838e-01 1.684964136830000014e-01 1.064306456299999974e-02 9.748772002399999637e-02 1.207359316230000035e-01 1.384770849039999863e-01 -6.238603688000000230e-02 1.299180060790000035e-01 1.346307441410000139e-01 1.821307883799999985e-02 5.623973405700000150e-02 -5.954734639300000160e-02 1.899269788499999972e-02 -3.004633784860000212e-01 7.852707250800000649e-02 -1.389944283079999898e-01 -1.194551337549999981e-01 6.752437009299999682e-02 7.130456740000000460e-02 -1.154708225119999987e-01 4.013424969900000056e-02 -1.043835066000000072e-03 -2.699961076410000160e-01 -4.539709506200000078e-02
-1.671985698379999941e-01 -1.883185394469999996e-01 -3.817579518140000183e-01 -1.587994962029999901e-01 5.408932205369999524e-01 -5.447829939770000296e-01 7.182684412430000442e-01 -4.770595768970000150e-01 -2.073342327799999885e-01 -7.103863176860000239e-01 7.961503637719999915e-01 -2.727102127409999910e-01 -4.947507888170000201e-01 -5.921348369350000196e-01 4.030768474540000201e-01 4.102634742169999904e-01 2.875622882409999970e-01 2.796993399000000102e-02 8.118076402530000069e-01 -2.418209127319999874e-01 2.896911469519999893e-01 -7.351095644900000614e-02 3.028098213389999738e-01 1.028665477599999961e-01 -1.165699839421000084e+00 8.908788974189999488e-01 2.042573264310000025e-01 1.811596622409999968e-01 1.870744149280000046e-01 -3.779587895839999767e-01 9.577408310799999380e-02 -1.494585320419999919e+00 -1.607203995669999885e-01 -5.424472968750000401e-01 4.209890864999999982e-01 6.644597651150000450e-01 9.268370717560000527e-01 -3.546760536770000027e-01 6.230301933530000280e-01 -5.265625244210000444e-01 -1.154665860813000045e+00 -2.727557512309999876e-01 -2.167971517929999925e-01 3.588898396549999870e-01 2.134248942648000025e+00 5.159077788379999863e-01 1.477474208345000095e+00 -2.001372669727000009e+00 -3.475628518319999749e-01 -6.611149854500000256e-01 -6.612469389599999747e-01 -9.084600273800000347e-02 -8.162657772400000455e-02 2.243174228400000164e-02 -5.133308399999999758e-03 3.665970825120000165e-01 3.213021479190000251e-01 1.108627980770000021e-01 -3.825242211479999987e-01 1.346578122171999903e+00 -5.036672362599999703e-02 3.897148341130000082e-01 -1.316861785539999996e-01 -2.758839624630000098e-01 2.913060141200000119e-01 5.365221317100000303e-02 4.374784638729999897e-01 2.253127051569999983e-01 1.149739014873000009e+00 -8.374939320900000039e-01 -6.626257843499999689e-02 -7.516417618500000064e-02 -7.569878948000000052e-02 -5.273205072059999887e-01 -8.592198890499999631e-02 -1.644936825100000097e-02 8.512803317299999506e-01 -1.965317641765000012e+00 -1.750906722660000026e-01 2.668294918710000241e-01 -7.821985118499999445e-02 8.861928823210000195e-01 -2.275181391069000192e+00 4.884350811950000093e-01 -1.620956908969999888e-01 3.786628064020000073e-01 -5.211893648990000294e-01 9.301513491020000357e-01 5.721184233400000013e-02 3.408683786439999919e-01 3.037451536069999958e-01 7.868271116889999917e-01 -6.409941501000000486e-01 6.567209227539999583e-01 5.193219378090000449e-01 -1.416340291927999928e+00 -1.566191880489000043e+00 9.094417672979999701e-01 1.461624668950000094e-01 6.357381479079999842e-01 5.920591805439999744e-01 6.524319605970000380e-01 8.955349661099999692e-02 8.708708438200000179e-01 1.290912510635999988e+00 -2.014960967899999955e-01 3.105961548450000276e-01 -4.630837560569999733e-01 3.905127981309999829e-01 -1.053885267414000015e+00 2.579713989019999931e-01 1.592122778710000075e-01 -4.570830549900000150e-01 -5.821393376700000066e-02 -6.698013665919999582e-01 -5.265089901639999903e-01 1.283119312000000067e-01 2.700771455090000273e-01 -1.543985570458999979e+00 -3.316263984660000053e-01
-2.309349122330000004e-01 -4.517459463399999681e-02 -5.275931542139999930e-01 -3.594005250890000003e-01 4.829617005019999909e-01 -1.016076151011999995e+00 1.167928677097999968e+00 -7.475270869200000279e-01 -7.609044233900000287e-02 -9.143638773350000193e-01 1.259949492662999937e+00 -4.118961997389999907e-01 -5.097096143460000395e-01 -7.143481383540000174e-01 5.133603144120000294e-01 3.912287995009999797e-01 2.095302279190000005e-01 1.166571117580000039e-01 1.086936405686999896e+00 -6.768589158299999353e-02 1.656484188329999940e-01 -1.088419334610000039e-01 1.850648356459999866e-01 1.455111353440000088e-01 -1.560486319208999939e+00 9.050450146799999818e-01 3.143748606869999906e-01 2.114338630950000075e-01 1.966944060908000003e+00 -7.818024730889999718e-01 3.437832948990000026e-01 -1.701319656399000069e+00 -3.778482957309999835e-01 -4.690291405570000127e-01 6.863470888589999763e-01 9.506858833229999695e-01 5.343854468269999547e-01 -7.776733971600000017e-02 1.328478436434999965e+00 -6.997065239030000328e-01 -1.283888802060999978e+00 -1.264617804170000137e-01 -4.506857968360000188e-01 2.329595677409999899e-01 2.486256267446000034e+00 3.046259921169999774e-01 1.432379540341000013e+00 -1.952502743476000058e+00 -4.528846418670000040e-01 -1.116847851693999916e+00 2.622274654299999730e-01 8.038600725669999836e-01 -1.960108083599999829e-02 8.998175236399999499e-02 -1.155863584020000029e-01 3.535325358349999947e-01 5.648144210059999892e-01 2.413534444899999992e-02 -6.302451723119999460e-01 7.735109190540000457e-01 -8.315538061610000531e-01 4.170723732009999907e-01 -2.714725063860000120e-01 -4.186797481849999780e-01 -2.123494939122999803e+00 3.525186953199999779e-02 3.829781497870000107e-01 -2.615915819700000144e-02 2.584362358580000185e-01 -1.262538854156000090e+00 -9.289231518299999324e-02 2.153997628600000033e-02 -1.415902313409999891e-01 -6.709233037830000246e-01 -4.400232696700000223e-02 -1.955322973349999938e-01 7.644798831129999694e-01 -7.726210811779999910e-01 1.823564157779999917e-01 -4.535342880200000232e-02 -1.835500952849999923e-01 1.031001685619999941e+00 -1.077803563520000063e+00 5.762591166839999834e-01 -1.901987462109999971e-01 4.605914192630000126e-01 -1.583119942244000100e+00 7.001264280850000299e-01 1.327369930889999994e-01 5.356509849289999847e-01 5.577008743319999962e-01 1.560751435789999864e-01 -6.666000495699999639e-01 8.617489324239999693e-01 4.030696737050000200e-01 -1.058861917958000110e+00 -7.958527819359999533e-01 9.960309384679999489e-01 -1.473483750400000070e-01 6.334663712400000479e-01 1.780413958669999908e-01 6.329548180039999972e-01 1.410470940659999950e-01 1.182096335098000051e+00 3.311800621989999804e-01 -1.234695893690000018e-01 3.875529322310000135e-01 -5.482492631880000467e-01 6.225408435220000092e-01 -5.373048283510000189e-01 3.784949923300000019e-01 2.554832760840000105e-01 -3.114145784410000117e-01 6.546969399230000430e-01 -8.418306661929999546e-01 -7.853233911070000017e-01 3.438880084000000160e-03 4.361083969469999877e-01 -7.173860316910000146e-01 -5.933140640840000035e-01
-2.571167461409999966e-01 2.178263293549999868e-01 -5.857182590339999884e-01 -4.543325808070000082e-01 1.872814815630000074e-01 -1.188177550912999925e+00 1.435940441695999992e+00 -7.474929361500000091e-01 1.403081772410000039e-01 -7.530991448420000234e-01 1.651277896567999948e+00 -4.611537955760000029e-01 -8.642653203599999501e-02 -7.908788815899999713e-01 5.971132217519999896e-01 -1.744269125400000134e-02 8.327662452499999535e-02 1.404951740919999914e-01 8.962335258100000424e-01 3.314159397529999884e-01 -9.751451439699999890e-02 -2.871416332680000183e-01 -2.464830637609999875e-01 3.436486475430000076e-01 -9.333832789089999693e-01 -3.232139168900000081e-02 5.528933549969999861e-01 -1.057819132390000055e-01 1.149587418487000079e+00 -1.214567579346000015e+00 -2.535789208709999798e-01 -8.732555037560000288e-01 -3.308665563439999735e-01 -1.550295644319999999e-01 7.986386877919999794e-01 6.921884953970000032e-01 -1.151542168700000063e-01 5.353918227859999490e-01 6.069054797720000449e-01 -3.007151257569999903e-01 -7.475644589659999895e-01 9.984818840100000148e-02 9.541980394700000367e-02 4.601687935300000087e-02 1.312676557849999925e+00 3.695036730600000097e-02 8.199183786720000144e-01 -9.174864118669999735e-01 -3.712187131510000238e-01 -1.235799967621000084e+00 1.051459059224000070e+00 1.326211779039000005e+00 1.296175145450000066e-01 -5.690066591500000243e-02 -1.994809066200000092e-01 -1.996834305790000097e-01 5.551029856710000265e-01 -1.052836036180000018e-01 -6.090640544959999847e-01 -2.438689047100000007e-01 -7.573346335470000357e-01 1.692232779989999991e-01 -4.241477643409999887e-01 -5.359087360109999754e-01 -1.673466057951999986e+00 2.279558971489999974e-01 2.996391295600000018e-02 -5.448099971930000507e-01 -6.208207134330000487e-01 -4.755007407740000080e-01 -2.542938471599999750e-01 1.114591436379999967e-01 -1.754137089829999885e-01 -2.480375125179999918e-01 5.007359940500000217e-02 -4.324505807649999811e-01 -7.720275696299999657e-02 9.812324952309999793e-01 3.655442386020000267e-01 -6.646886148509999481e-01 -2.184700618510000136e-01 8.557779390909999728e-01 1.047421270193999998e+00 3.950377864399999828e-01 -1.861732658539999863e-01 4.696550213640000027e-01 -6.964805279250000369e-01 -4.755247806930000265e-01 2.708796148520000169e-01 6.734836946229999510e-01 6.160383799980000408e-01 -8.003249538890000458e-01 -2.902276041429999731e-01 8.553531806009999627e-01 -1.771845948849999908e-01 -6.051114999499999925e-02 1.811523165370000077e-01 3.887952700050000265e-01 -8.868009342039999687e-01 9.151857638400000272e-02 -4.071290408150000095e-01 1.536168131990000019e-01 -2.810847714899999961e-02 9.619919729700000532e-01 -9.586722909499999501e-01 -3.856946601899999966e-02 1.914487976769999877e-01 -2.409691452009999901e-01 6.340801218470000222e-01 5.694146991890000065e-01 3.262286738610000181e-01 3.329128215600000301e-02 2.858482391639999842e-01 1.336556269881000070e+00 -2.445624661780000098e-01 -7.625413982669999591e-01 -2.434027780240000105e-01 2.912565618169999926e-01 7.872953262899999860e-01 -6.115265071990000356e-01
-2.095562046359999986e-01 3.146574327950000249e-01 -6.810153327950000390e-01 -3.894052516170000144e-01 6.507345047199999954e-02 -9.406035158600000168e-01 1.439499493815999953e+00 -6.675973101069999638e-01 2.468064693610000082e-01 -4.587207838769999935e-01 2.150587283122999960e+00 -4.386094647639999788e-01 4.677109870050000229e-01 -1.041030530485000050e+00 7.472306820230000257e-01 -4.573409997569999885e-01 1.356737332079999969e-01 7.011774180000000280e-03 4.467238983979999745e-01 5.389805442649999723e-01 -2.811927914519999905e-01 -6.079071430319999969e-01 -6.634051285269999543e-01 7.720871318240000170e-01 -7.210292765139999505e-01 -1.585961048121000028e+00 3.632818438500000080e-01 -5.541498672200000364e-01 -7.077419676759999501e-01 -9.175353930330000241e-01 -7.844997291890000168e-01 1.416450897290000011e-01 1.993746527009999936e-01 2.436495284059999877e-01 1.716629283952999963e+00 4.390574264470000210e-01 -9.726630720199999636e-02 9.413098194050000256e-01 -1.039853417509999933e-01 6.060859992939999774e-01 5.960563850090000448e-01 3.691330111030000083e-01 1.102266182404999961e+00 1.096224090379999960e-01 -6.165897285089999569e-01 9.069821119599999482e-02 -4.848948335869999737e-01 2.999508873350000271e-01 -3.353447760099999980e-02 -1.106532527381999920e+00 2.956624836489999963e-01 2.272851558339999967e-01 2.475219925699999879e-01 -4.912866848319999979e-01 -1.175022494399999978e-01 -8.564849284579999500e-01 3.031257286769999948e-01 -2.966633295889999911e-01 -3.620689190120000012e-01 -3.415399926220000215e-01 1.299186655529999956e-01 -1.513037879280000053e-01 -4.238810038529999824e-01 -3.705996900699999874e-01 7.497090927299999708e-01 5.357638958099999460e-01 -3.800144319450000086e-01 -8.285208320929999815e-01 -2.057456554950000127e-01 4.832082646950000004e-01 -4.760746376009999947e-01 1.613868726550000132e-01 -1.366449630240000046e-01 7.036883227410000163e-01 1.761306437890000076e-01 -4.875549144419999981e-01 -9.224856282910000038e-01 7.543858148959999843e-01 8.003832465599999835e-02 -9.831563853779999862e-01 -1.525108445439999905e-01 1.659361187299999985e-01 8.747695980770000546e-01 1.917870380120000051e-01 -2.998303960490000253e-01 3.936801254080000145e-01 1.006340450694999999e+00 -4.177960156089999821e-01 2.288367473619999926e-01 6.472425408659999713e-01 5.444100419520000456e-01 -6.912339965089999705e-01 3.354200649900000025e-02 7.010198178619999609e-01 -8.235973812929999749e-01 3.138398096319999775e-01 3.994240188259999824e-01 -5.666858545530000235e-01 -1.383414479020999899e+00 -5.272768216969999644e-01 1.324810805059999930e-01 -4.258722942470000161e-01 -4.010683520739999897e-01 3.821318215919999872e-01 -5.719541909809999769e-01 -1.143439673999999996e-02 -1.635687693479999927e-01 2.948640843190000194e-01 4.812349787290000069e-01 1.138174317068999963e+00 1.087945453740000040e-01 -2.993919054920000100e-01 9.378649654480000208e-01 5.675394384659999680e-01 5.922093890340000000e-01 -3.546422857529999972e-01 -4.057140057420000057e-01 -1.421315695750000052e-01 9.378932576020000411e-01 -4.528885126609999978e-01
-2.141373955629999881e-01 2.470364362149999882e-01 -7.141355654350000082e-01 -2.223397742790000076e-01 2.616392173350000072e-01 -5.811587178260000375e-01 1.379120355581000101e+00 -5.901559314700000058e-01 3.553791598050000111e-01 -3.676161645359999897e-01 2.373294958029999790e+00 -4.942268122169999889e-01 7.245690414150000036e-01 -1.312893518290999983e+00 7.800598890829999466e-01 -5.214694111659999853e-01 2.363655675219999974e-01 -1.735413679220000061e-01 1.460167595200000112e-01 4.331207497590000011e-01 -3.899345985039999740e-01 -8.831162169849999799e-01 -9.027412154599999683e-01 1.190913045245999946e+00 -7.925483862679999492e-01 -2.256131039896000168e+00 -2.163509451960000107e-01 -7.061386183510000025e-01 -8.296665254659999489e-01 -2.329316095220000105e-01 -6.705968764409999672e-01 6.852615695720000177e-01 9.368547969189999769e-01 4.564989144089999784e-01 1.788957468321000110e+00 -2.634953139899999866e-02 -7.741625436500000623e-02 7.466291205859999502e-01 4.378040950900000117e-02 1.173675498404999962e+00 1.621812402440000023e+00 2.763445780359999882e-01 1.546183392849000082e+00 4.112332482139999801e-01 -1.839940322296000019e+00 1.107522564890000005e-01 -1.906356484828999998e+00 1.690778249080999940e+00 4.157336632329999837e-01 -5.141210962600000212e-01 -6.588358792149999754e-01 -9.006952446760000397e-01 2.388144393549999911e-01 -7.335927366529999549e-01 4.611297240500000089e-02 -9.695553668749999909e-01 1.719921405399999978e-02 -5.866221002799999473e-01 -1.028081661259999946e-01 -1.031563369830000021e-01 8.018616113159999781e-01 -3.479096068240000172e-01 -8.953092924899999638e-02 -1.935582646200000034e-02 1.710697600228999971e+00 5.096813775559999593e-01 -5.589679316640000506e-01 -5.574647717909999578e-01 5.177171530899999929e-01 8.126452618460000554e-01 -5.152789021939999659e-01 7.075985714400000182e-02 -1.355443242299999955e-02 5.469293680010000047e-01 2.191609178629999877e-01 -3.027803228429999938e-01 -1.221632647377000058e+00 2.677295022899999974e-02 -3.134347866960000006e-01 -6.860665320100000075e-01 5.634821001399999835e-02 -6.133404272500000420e-01 -4.740144582220000014e-01 4.601131963099999722e-02 -3.286092776210000066e-01 3.272442526909999927e-01 1.636351683160000015e+00 2.038520314420000090e-01 7.278586310399999537e-02 4.257332374869999825e-01 3.603188567839999967e-01 4.720610259449999901e-01 1.456266236569999928e-01 4.601737638689999965e-01 -9.525221319400000164e-01 2.086093067489999953e-01 4.740671545080000215e-01 -1.081146370394999945e+00 -1.159050872085999995e+00 -7.338470778919999882e-01 1.279694177054000015e+00 -6.921266488889999957e-01 -5.753553154630000055e-01 -2.973539410889999846e-01 1.412767476740000028e-01 1.421898864210000002e-01 -4.549617140419999761e-01 6.800092725669999449e-01 1.426092568039999953e-01 8.881538520659999492e-01 -1.097871264459999996e-01 -4.352360022610000101e-01 1.049918341879999995e+00 -1.328005320066999895e+00 9.722044769930000552e-01 3.711945419350000108e-01 -3.355323113529999901e-01 -5.314073108019999880e-01 2.099362203019999873e-01 -9.718036729199999724e-02
-3.746225089840000133e-01 2.307585514599999887e-01 -6.038640921360000080e-01 -1.876565967500000084e-02 5.440610778979999562e-01 -4.627573744460000138e-01 1.456956981187000011e+00 -4.119068932039999797e-01 5.259096283709999708e-01 -5.931779895209999820e-01 2.035696244296000046e+00 -5.856085617530000231e-01 5.265677211320000106e-01 -1.348424562201999910e+00 5.873201269679999559e-01 -1.885425977959999944e-01 1.818005592330000086e-01 -2.183897465340000066e-01 2.919459132660000011e-01 2.527477205909999802e-01 -4.298090854580000064e-01 -9.633983325230000005e-01 -9.738699268310000434e-01 1.274104185781999909e+00 -4.654260865459999841e-01 -1.557851405037999903e+00 -7.727165246789999831e-01 -4.425932901299999833e-01 -3.202218330230000021e-01 3.756488205349999832e-01 -1.627469244520000080e-01 5.395503923919999778e-01 1.307641819791999893e+00 6.887394920780000040e-01 3.828453596140000137e-01 -4.279083702350000018e-01 -2.411101776329999946e-01 2.254786313499999861e-01 4.523309653500000027e-01 9.560343872230000484e-01 1.289034250529000003e+00 -2.156280514080000099e-01 9.544846772330000118e-01 7.536619443330000445e-01 -1.837345322842000028e+00 -3.405446737699999726e-01 -1.203556160079999993e+00 1.983631114170999910e+00 7.875710446539999632e-01 3.125800564249999747e-01 -7.609513163769999755e-01 -8.783923870730000472e-01 6.996774828299999471e-02 -5.478840410730000388e-01 1.141774738639999981e-01 -3.882057630660000203e-01 -1.686416474870000015e-01 -9.231853190300000067e-01 9.964944500000000489e-04 -4.218325615740000090e-01 9.520253350649999780e-01 -1.331409969039999974e-01 5.524864113790000086e-01 2.274136178939999975e-01 8.403779982100000323e-01 1.704164152340000016e-01 -4.108777974830000179e-01 5.944462037599999860e-02 2.453067020220000005e-01 6.402254892019999533e-01 -2.163518083000000036e-01 -1.992481485229999905e-01 1.361353197569999951e-01 -1.002842598461000101e+00 1.948028303200000089e-01 -7.102685025999999971e-03 -8.461652777360000321e-01 3.464024205110000088e-01 -4.111464984959999902e-01 -7.467118458200000530e-02 3.512828726409999991e-01 -1.015800777714999992e+00 -5.075332066309999890e-01 -2.485998783400000106e-02 -1.253608343369999878e-01 3.333318638919999799e-01 8.516676108309999549e-01 8.505553614999999956e-02 -2.172849466500000049e-02 1.337850867860000126e-01 1.633596988600000133e-01 1.186556672050999905e+00 4.403001613299999811e-02 1.910797685260000045e-01 -3.468799940069999810e-01 1.833981659589999924e-01 5.973752012059999617e-01 -8.571056545070000476e-01 -2.744973085160000159e-01 -3.700678591400000106e-01 1.597832971020000103e-01 -3.875174403930000122e-01 -3.884082536940000052e-01 -7.231559343179999599e-01 1.152082770269999973e-01 3.130311748219999912e-01 -4.282185412899999766e-01 6.843370274890000493e-01 -2.613360111299999899e-01 1.751336271060000005e-01 -2.561385873440000238e-01 -1.627767858929999867e-01 8.648024644539999972e-01 -2.034949834660999990e+00 2.725411155129999763e-01 9.791663793079999900e-01 8.824571746999999855e-03 -6.093364975830000141e-01 -5.594571850499999860e-02 2.420129342250000037e-01
-5.869546767750000171e-01 3.528936489660000064e-01 -4.481385326030000171e-01 1.826166608789999979e-01 6.599362527259999833e-01 -5.910822493849999804e-01 1.593736107508999966e+00 -9.190172479199999744e-02 6.638760343999999813e-01 -9.520899574800000265e-01 1.410442689067000099e+00 -4.010301925850000004e-01 5.665169809799999734e-02 -1.154195644767999962e+00 3.538797254589999830e-01 2.948112852320000088e-01 -1.746637869100000143e-02 -1.459742921149999872e-01 7.692157722360000172e-01 1.922088999980000046e-01 -3.780030659720000075e-01 -7.953144057450000082e-01 -8.920823427549999796e-01 9.973692350049999655e-01 1.663027940340000010e-01 -2.627912826700000148e-01 -1.045693227387000102e+00 6.293419288700000114e-02 3.238013376719999781e-01 8.077659611909999704e-01 6.872089282109999919e-01 -3.580867593470000165e-01 9.877868141650000267e-01 5.661602685719999695e-01 -1.039669504918000031e+00 -5.167004991000000436e-01 -5.277785378339999722e-01 -8.087656760200000183e-02 9.590445039889999856e-01 1.854459516170000044e-01 -2.106329550199999984e-02 -7.783692801970000241e-01 -3.119146863980000184e-01 9.863735292890000173e-01 -6.942576551279999730e-01 -1.029126377946999904e+00 -1.245177252180000027e-01 3.957762760040000050e-01 9.261604782800000324e-01 9.316943587499999513e-01 -3.345078701270000066e-01 6.691036550800000260e-02 -1.514695482669999871e-01 -2.015859028549999987e-01 3.024777271600000150e-02 1.977677878080000007e-01 -2.433748231220000113e-01 -1.089512358631999911e+00 -7.662647000699999988e-02 -5.835075186079999865e-01 5.291139181199999708e-01 3.309044873470000092e-01 1.149453463169999967e+00 2.751282680789999824e-01 -1.147282590219000031e+00 -3.355915606880000013e-01 -3.828449568199999986e-02 6.138942619739999884e-01 -3.827728063260000257e-01 1.316770413989999944e-01 3.078475542210000193e-01 -4.590016688219999974e-01 1.853862555880000096e-01 -1.620451878669999957e+00 8.009692427600000053e-02 2.453573084310000096e-01 -2.018164444409999980e-01 9.892504166840000446e-01 -2.773219641099999855e-01 5.569510093739999945e-01 6.077927454679999952e-01 -7.533887464559999581e-01 5.407949661099999833e-02 -9.860589191799999653e-02 1.042701216729999963e-01 2.538500564239999924e-01 -1.076526916608999906e+00 -3.784127009780000050e-01 -1.697475304930000095e-01 -1.785458993319999910e-01 1.890641310600000083e-02 6.550092583059999862e-01 -2.978006009399999932e-01 3.075605451100000068e-02 6.064672538230000409e-01 5.748003363260000276e-01 3.758988229529999781e-01 -1.762807792320000011e-01 5.010130403870000082e-01 3.886981334910000196e-01 -1.439473170255999968e+00 3.648638505869999937e-01 -2.274084940199999974e-02 -7.708845495280000071e-01 -3.655654821089999729e-01 1.428532776650000002e-01 -1.028003866729999966e-01 2.535502493910000155e-01 -4.876053641399999972e-01 -6.262026441889999573e-01 -4.018357959680000091e-01 3.664621755579999807e-01 7.139866972509999465e-01 -4.951505748960000064e-01 -7.308921275049999888e-01 1.153411086711999989e+00 4.279749688600000268e-01 -4.015728172690000153e-01 2.241675519200000133e-01 3.393277614299999856e-01
-6.603453855559999752e-01 5.274729958130000007e-01 -4.636446812319999777e-01 3.435385170549999923e-01 6.397202278169999978e-01 -6.633795356530000076e-01 1.586838318544999904e+00 2.146096315970000001e-01 5.671924121300000454e-01 -1.176812312055999898e+00 7.871141336450000470e-01 -1.879258247700000065e-02 -2.852489563589999944e-01 -8.154900777179999727e-01 4.413836704720000004e-01 5.783019089159999737e-01 -2.280073499899999967e-01 -1.674584215169999946e-01 1.066623267480000026e+00 1.906950158329999978e-01 -1.669311132600000136e-01 -4.588728380759999892e-01 -6.656363364799999793e-01 6.451902071949999762e-01 5.164170601740000199e-01 8.724323434899999841e-01 -1.184843222600999946e+00 4.375561944119999991e-01 5.850724149129999940e-01 8.844079792210000068e-01 1.835916592113999934e+00 -1.330190236750999899e+00 1.178578152419999941e-01 -3.125836085800000330e-02 -1.270341067261999912e+00 -1.360905753090000114e-01 -6.836839760659999543e-01 5.175652633620000387e-01 3.747628671199999817e-02 -5.832893644080000550e-01 -1.153230809420999980e+00 -2.698690937470000217e-01 -1.427556869031000097e+00 5.095137784200000075e-01 5.871660617210000543e-01 -1.125135602444000016e+00 5.371901646200000213e-01 -8.130475524429999767e-01 7.892940162749999544e-01 9.831417707870000466e-01 1.465308464629999918e-01 6.640628768099999801e-01 -3.435789974930000268e-01 9.771308245899999745e-02 -6.238575604200000124e-02 3.387225964619999807e-01 -2.273940283549999997e-01 -7.676524918039999701e-01 -3.362974795959999819e-01 2.373910466720000056e-01 -2.194007905629999922e-01 5.610653812000000462e-01 1.248056915365999942e+00 3.560697273719999889e-01 -2.195454100970000155e+00 -7.270153147250000281e-01 3.767474614460000204e-01 7.722677583979999927e-01 -7.324341049799999726e-02 -6.100191786790000181e-01 5.577620053259999544e-01 -3.995916899490000174e-01 5.962708383399999840e-02 -5.144248681640000154e-01 -1.181366306990000031e-01 2.534386455170000163e-01 3.530934755130000213e-01 2.138098416349999975e-01 -2.438492119900000088e-01 8.714324564409999807e-01 6.241019464539999673e-01 -1.384423035050000028e-01 -6.121840426999999862e-02 -2.185138256470000040e-01 2.001374108389999962e-01 5.067439882500000131e-02 -1.801042973996000107e+00 -8.793214562399999379e-02 -4.639822686439999955e-01 -2.950811816910000052e-01 -1.850354625539999964e-01 -6.955177684519999737e-01 -5.569909325809999645e-01 -1.178329704100000014e-02 1.182056711365000012e+00 4.873484562000000020e-01 -1.633945308720000100e-01 5.174084722270000380e-01 7.057059240769999464e-01 1.054819667944999928e+00 -1.395276511737000069e+00 8.972336694089999565e-01 2.867440540980000230e-01 -5.860721948729999964e-01 -1.508981058170000000e-01 -3.792794130309999900e-01 2.517434448010000270e-01 -3.685102252119999977e-01 -5.194874160750000414e-01 -8.586002187529999663e-01 -3.370500977240000196e-01 6.746533377469999815e-01 7.113612538499999860e-02 6.431721208909999543e-01 -1.041102521600999919e+00 7.914814100100000527e-01 5.433466732230000096e-01 -2.188179563459999866e-01 2.299467143270000069e-01 3.244023959000000290e-02