-1.961226512873584793e-01 -2.428584995508781486e+00 1.718139565583624906e+00 -2.428584995508781486e+00 -6.129975840831019873e+00 -2.493608542067758282e+00 1.718139565583624906e+00 -2.493608542067758282e+00 1.826699783361110052e+00
4.374218430658762813e+00 -2.350848038676687235e+00 1.615260864808826247e+00 -2.350848038676687235e+00 6.369886743310263499e-01 -2.853268300202828289e+00 1.615260864808826247e+00 -2.853268300202828289e+00 8.730938254867011139e+00
8.754787931766273346e+00 -2.347634745556991476e+00 1.751499050902372456e+00 -2.347634745556991476e+00 6.427019900347339387e+00 -2.620394648569075891e+00 1.751499050902372456e+00 -2.620394648569075891e+00 1.191340709298707701e+01
7.301521842364431691e+00 -2.102126135048168809e+00 1.975737016065056695e+00 -2.102126135048168809e+00 5.714984552050816013e+00 -2.782934217034413127e+00 1.975737016065056695e+00 -2.782934217034413127e+00 7.940719250766364645e+00
3.402814324580887284e+00 -1.974073419838831445e+00 1.981882859956862530e+00 -1.974073419838831445e+00 4.727775003925047237e+00 -3.841417439252886368e+00 1.981882859956862530e+00 -3.841417439252886368e+00 1.646727434703447068e+00
-1.298539189948856414e-02 -1.949155140027682531e+00 2.160367059814223278e+00 -1.949155140027682531e+00 3.775342012106324585e+00 -3.864973670769538572e+00 2.160367059814223278e+00 -3.864973670769538572e+00 -1.826017790074616398e+00
-3.471641703243807608e+00 -1.121353242054909050e+00 2.066344034391677909e+00 -1.121353242054909050e+00 -1.817487298143648289e+00 -3.054945694741584727e+00 2.066344034391677909e+00 -3.054945694741584727e+00 -2.814357628445614878e+00
-5.460255287160747706e+00 -2.134399243175828242e-01 1.580704681099340370e+00 -2.134399243175828242e-01 -5.402605795515547982e+00 -2.394333947523201278e+00 1.580704681099340370e+00 -2.394333947523201278e+00 -2.304110606206604572e+00
-4.260771254052902357e+00 -2.095552358451649444e-01 1.807447674688258177e+00 -2.095552358451649444e-01 -5.514600068893371621e+00 -2.067016155397038535e+00 1.807447674688258177e+00 -2.067016155397038535e+00 -2.448926477712458916e-01
-1.731509841673309902e+00 -4.591629466057655096e-01 2.259413724282923308e+00 -4.591629466057655096e-01 -3.551445366151466665e+00 -2.143875798938189803e+00 2.259413724282923308e+00 -2.143875798938189803e+00 1.263942075023564815e+00
-1.955980184998077354e+00 -4.695389952945505097e-01 1.656806069715168084e+00 -4.695389952945505097e-01 2.108724648540282409e+00 -2.461683484352713780e+00 1.656806069715168084e+00 -2.461683484352713780e+00 -2.638824559290375849e+00
-8.645072566201658759e+00 -3.278581610212825681e-01 1.219749555096857119e+00 -3.278581610212825681e-01 -2.049330691416511030e+00 -2.198612233722473608e+00 1.219749555096857119e+00 -2.198612233722473608e+00 -1.242060728126875269e+01
-1.328000298612825425e+01 -6.497006278468006046e-01 1.282110436630174766e+00 -6.497006278468006046e-01 -1.366927350539210551e+01 -2.028095874322142222e+00 1.282110436630174766e+00 -2.028095874322142222e+00 -1.766820250202452769e+01
-1.145664796437992372e+01 -1.809070958750247371e+00 1.476652060669383371e+00 -1.809070958750247371e+00 -1.631671177126220940e+01 -2.233259365987259493e+00 1.476652060669383371e+00 -2.233259365987259493e+00 -1.288260614264710391e+01
-5.512646254695368953e+00 -3.425963734530338201e+00 2.393141555908670615e+00 -3.425963734530338201e+00 -1.433642477256732128e+01 -2.529568982351537709e+00 2.393141555908670615e+00 -2.529568982351537709e+00 -4.689535264838518458e+00
-4.206957209926101449e+00 -4.196206174402511202e+00 2.526807060403104099e+00 -4.196206174402511202e+00 -1.157512020527449970e+01 -3.826649780152477476e+00 2.526807060403104099e+00 -3.826649780152477476e+00 -4.248315723655710308e+00
-3.594568332716010062e+00 -3.641606354106343257e+00 1.619536714267005850e+00 -3.641606354106343257e+00 -4.457014324613272294e+00 -3.975844426246435859e+00 1.619536714267005850e+00 -3.975844426246435859e+00 -5.763915621830594027e+00
-3.183262644345105308e+00 -1.925227376246052557e+00 5.758267791018164550e-01 -1.925227376246052557e+00 3.677489780808498310e+00 -2.569538584767027345e+00 5.758267791018164550e-01 -2.569538584767027345e+00 -8.934871340257602768e+00
-3.298524344230847838e+00 -1.254718954471064851e+00 5.199869500072560324e-01 -1.254718954471064851e+00 1.043750017143469044e+01 -2.063864295113202463e+00 5.199869500072560324e-01 -2.063864295113202463e+00 -2.290131341411391741e+00
-1.122164214201668564e+00 -1.233557514928193877e+00 3.072496720634154688e+00 -1.233557514928193877e+00 3.026378061977172518e+00 -3.811248725549151839e+00 3.072496720634154688e+00 -3.811248725549151839e+00 7.121040755042151282e+00
3.195160039747054537e+00 -7.152165599308136779e-01 3.713242942544347169e+00 -7.152165599308136779e-01 -9.056100391922573323e+00 -3.769321262380081361e+00 3.713242942544347169e+00 -3.769321262380081361e+00 8.531678965825086891e+00
1.046409140087973988e+01 -1.377166527698434173e+00 4.602660797400615067e+00 -1.377166527698434173e+00 -1.165032371515457932e+01 -3.642966446829345450e+00 4.602660797400615067e+00 -3.642966446829345450e+00 8.997724323718060191e+00
8.930702137202015223e+00 -3.171486944519936291e+00 4.431012493115812134e+00 -3.171486944519936291e+00 -8.909195215673786805e+00 -1.514751432516420637e+00 4.431012493115812134e+00 -1.514751432516420637e+00 3.267366087588271295e+00
9.853801792487061340e-01 -5.044343200146812478e+00 2.864442808279433983e+00 -5.044343200146812478e+00 -3.263092624471112924e+00 3.406548628262591472e-02 2.864442808279433983e+00 3.406548628262591472e-02 1.798753958946837095e+00
-1.999866529387580028e-01 -3.652727505171148081e+00 2.183170014129725889e+00 -3.652727505171148081e+00 -8.975861025886952005e-01 9.450028736363508264e-01 2.183170014129725889e+00 9.450028736363508264e-01 -5.159449730165871273e+00
1.261809410978144141e-01 -1.626450421111354405e+00 3.663193041333984379e+00 -1.626450421111354405e+00 8.864102158804966436e+00 -3.118312166278247588e-02 3.663193041333984379e+00 -3.118312166278247588e-02 -6.249217742683473631e+00
6.961609706687957200e+00 -1.728175162984666668e+00 3.901552391136734688e+00 -1.728175162984666668e+00 1.902766286967957043e+01 -1.600073955289520899e+00 3.901552391136734688e+00 -1.600073955289520899e+00 -2.565514870790297053e+00
-2.664451301376345338e+00 -1.901717904395197722e+00 1.091168379058742310e+00 -1.901717904395197722e+00 -5.351828785761023610e+00 -1.416469183601386739e+00 1.091168379058742310e+00 -1.416469183601386739e+00 1.128820115585187800e+00
-1.852966656056597117e+01 -2.080828900386966662e+00 3.904260991121718760e+00 -2.080828900386966662e+00 -2.048587025187383048e+01 -5.219275888398824392e+00 3.904260991121718760e+00 -5.219275888398824392e+00 -9.442091769539572965e+00
-2.177015310722966035e+01 -2.368389501122096341e+00 6.265028872993807951e+00 -2.368389501122096341e+00 -2.611436906145237913e+01 -4.244423993838360332e+00 6.265028872993807951e+00 -4.244423993838360332e+00 -1.519132440607416612e+01
-2.238950859912510438e+01 -2.180022441162041247e+00 3.900363542877236522e+00 -2.180022441162041247e+00 -2.157876359630618879e+01 -2.592184072838485953e+00 3.900363542877236522e+00 -2.592184072838485953e+00 -2.109726295428852794e+01
-2.502725770322248522e+01 -8.962208805867158956e-01 2.583100408307377194e+00 -8.962208805867158956e-01 -1.127159734531251267e+01 -2.032328049136814752e+00 2.583100408307377194e+00 -2.032328049136814752e+00 -2.380718977852750484e+01
-2.373101619961455100e+01 9.875514900770546167e-02 2.147087464287996461e+00 9.875514900770546167e-02 -1.596027621008041919e+01 2.122359996633461365e-01 2.147087464287996461e+00 2.122359996633461365e-01 -1.571248902521788438e+01
-2.565519107655896036e+01 6.493940351404939304e-02 2.789069440597742755e+00 6.493940351404939304e-02 -2.279928612981547786e+01 -3.833007868929686479e-01 2.789069440597742755e+00 -3.833007868929686479e-01 -7.501571868038597657e+00
-2.301688765888383514e+01 -2.627483475570891347e+00 3.434239681433912672e+00 -2.627483475570891347e+00 -2.452867176153090512e+01 -3.853955071396971910e+00 3.434239681433912672e+00 -3.853955071396971910e+00 -1.824833826198822351e+01
-2.187660049538965978e+01 -3.552003368926791804e+00 3.537385497952582725e+00 -3.552003368926791804e+00 -1.995785266119107249e+01 -4.850746188883782395e+00 3.537385497952582725e+00 -4.850746188883782395e+00 -2.244631150835257927e+01
-2.503007141424440718e+01 -2.887069735249286229e+00 1.450638791077635048e+00 -2.887069735249286229e+00 -1.600368371487765629e+01 -3.674471241880561401e+00 1.450638791077635048e+00 -3.674471241880561401e+00 -2.108564687137651816e+01
-1.343451404575008112e+01 -2.457199716801897083e+00 4.617304765846786188e-03 -2.457199716801897083e+00 -1.382235382732616458e+01 -2.339109023808470855e+00 4.617304765846786188e-03 -2.339109023808470855e+00 -1.495988047549255384e+01
-4.829302521962516970e+00 -1.616539952728510698e+00 -3.691324751452302322e-01 -1.616539952728510698e+00 -5.349123841424681558e+00 -1.872038262987828050e+00 -3.691324751452302322e-01 -1.872038262987828050e+00 -4.718453906715955881e+00
1.993762837637577334e+00 -1.682858439330343625e+00 -5.400497468509249388e-02 -1.682858439330343625e+00 4.270206670747979771e+00 -3.684013576358931452e+00 -5.400497468509249388e-02 -3.684013576358931452e+00 2.452693799034188604e+00
1.071113954967474236e+01 -1.459059713674334846e+00 1.239461133060852038e+00 -1.459059713674334846e+00 9.159680826950543420e+00 -4.858451196219888857e+00 1.239461133060852038e+00 -4.858451196219888857e+00 7.891027167021990252e+00
1.316200525971587609e+01 -6.024056686546684913e-01 2.256670075766526562e+00 -6.024056686546684913e-01 1.102090725737135379e+01 -5.070516715920456718e+00 2.256670075766526562e+00 -5.070516715920456718e+00 1.379485306868377847e+01
1.510017341452813433e+01 -1.008514393435031131e+00 1.624355910657147462e+00 -1.008514393435031131e+00 7.555431656957851239e+00 -5.077522815293352032e+00 1.624355910657147462e+00 -5.077522815293352032e+00 2.041620082245585266e+01
1.875237447575275240e+01 -1.943971738543262218e+00 8.813805740040813186e-01 -1.943971738543262218e+00 5.663335722080938162e+00 -3.849114654067706365e+00 8.813805740040813186e-01 -3.849114654067706365e+00 2.138724986311029852e+01
2.119532318299012275e+01 -2.575191106122339146e+00 1.647165352175804731e+00 -2.575191106122339146e+00 8.804437231962701560e+00 -3.288890802234463617e+00 1.647165352175804731e+00 -3.288890802234463617e+00 2.196568570827196609e+01
1.891822739914756824e+01 -3.008175106118679665e+00 2.495043045783139402e+00 -3.008175106118679665e+00 9.210839647956666099e+00 -3.276826216189452801e+00 2.495043045783139402e+00 -3.276826216189452801e+00 2.021716762611164953e+01
1.542380949042818195e+01 -2.661271814123058466e+00 1.856609168890334116e+00 -2.661271814123058466e+00 9.658790857656203599e+00 -2.945879656671376079e+00 1.856609168890334116e+00 -2.945879656671376079e+00 1.922143416588414055e+01
1.113619870369351794e+01 -2.195494497297807435e+00 1.444586844886478483e+00 -2.195494497297807435e+00 1.017256815048506624e+01 -2.511507741220706524e+00 1.444586844886478483e+00 -2.511507741220706524e+00 1.473692958303285394e+01
1.051074492868058208e+01 -1.521678272908980389e+00 1.495661464253684736e+00 -1.521678272908980389e+00 8.466151875903493718e+00 -2.566359639990547947e+00 1.495661464253684736e+00 -2.566359639990547947e+00 1.427070096319005721e+01
7.295670264101334901e+00 -1.809764093344098379e+00 1.215500195751735291e+00 -1.809764093344098379e+00 4.848281078203314109e+00 -2.582509441917048676e+00 1.215500195751735291e+00 -2.582509441917048676e+00 1.072672495417840466e+01
1.563211357269404189e+00 -2.593930404700030223e+00 9.297509831253655266e-01 -2.593930404700030223e+00 -9.205122135565134700e-01 -2.533539089117931908e+00 9.297509831253655266e-01 -2.533539089117931908e+00 6.579960712943618617e+00
-2.435649688570154403e+00 -2.600910616280993626e+00 1.515525078760881383e+00 -2.600910616280993626e+00 -7.599273323235904876e+00 -2.090469121646512551e+00 1.515525078760881383e+00 -2.090469121646512551e+00 1.493666069870641877e+00
-6.750232553157464288e+00 -2.413754647457201141e+00 2.137447982226947651e+00 -2.413754647457201141e+00 -1.047860731811334389e+01 -1.916824518429081081e+00 2.137447982226947651e+00 -1.916824518429081081e+00 1.402081698862054582e+00
-1.229142844537369328e+01 -1.828363323659113027e+00 1.990583973941587814e+00 -1.828363323659113027e+00 -1.368579289091777973e+01 -2.182904765878244557e+00 1.990583973941587814e+00 -2.182904765878244557e+00 -1.127408690074298558e+00
-1.576199310067132586e+01 -1.340631441073675489e+00 1.725913141616520097e+00 -1.340631441073675489e+00 -1.285638732280124152e+01 -1.607121038712816530e+00 1.725913141616520097e+00 -1.607121038712816530e+00 -6.494875717062879694e+00
-1.544982224834049411e+01 -1.576189882047358104e+00 1.404423187674003870e+00 -1.576189882047358104e+00 -1.162921279680396403e+01 -1.041063447783051599e+00 1.404423187674003870e+00 -1.041063447783051599e+00 -1.096527264028304316e+01
-9.415189812908858258e+00 -1.554380501115906865e+00 7.846125191570778590e-01 -1.554380501115906865e+00 -1.454295378859236898e+01 -1.159723921433249316e+00 7.846125191570778590e-01 -1.159723921433249316e+00 -1.326161874888472170e+01
-6.875919633846772072e+00 -1.225968089800550276e+00 6.648413138585657078e-01 -1.225968089800550276e+00 -1.896578875052727753e+01 -1.451860434489834706e+00 6.648413138585657078e-01 -1.451860434489834706e+00 -1.643279505476548863e+01
-1.112382377310551007e+01 -1.709627464623144855e+00 1.513973710080608326e+00 -1.709627464623144855e+00 -2.031886617322678035e+01 -1.431634470634320255e+00 1.513973710080608326e+00 -1.431634470634320255e+00 -2.082786791189619890e+01
-1.407541960742936027e+01 -3.275469485735294395e+00 2.065136852704233750e+00 -3.275469485735294395e+00 -1.732867016556901518e+01 -9.404897641722347323e-01 2.065136852704233750e+00 -9.404897641722347323e-01 -2.173996306836967207e+01
-1.386359612256882023e+01 -4.421615285547254359e+00 1.853630763937910597e+00 -4.421615285547254359e+00 -1.028065864006572205e+01 -1.052298495683571922e+00 1.853630763937910597e+00 -1.052298495683571922e+00 -1.889245902038282665e+01
-1.100817391865033912e+01 -4.073114153853719444e+00 1.768261061932458800e+00 -4.073114153853719444e+00 -4.474821279743422586e+00 -1.307450421466304968e+00 1.768261061932458800e+00 -1.307450421466304968e+00 -1.266863669411947235e+01
-5.163985476516304907e+00 -3.215346497780785295e+00 1.578364765616100840e+00 -3.215346497780785295e+00 1.207656337868715957e+00 -9.478420632709327887e-02 1.578364765616100840e+00 -9.478420632709327887e-02 -5.134796360606701526e+00
-9.232294627737216430e-01 -3.070241616429278952e+00 1.286492892271701383e+00 -3.070241616429278952e+00 -5.317528344143999774e+00 -2.378941186269163399e-01 1.286492892271701383e+00 -2.378941186269163399e-01 2.671140850980970427e+00
1.278328014311674421e+00 -4.042530970178023431e+00 2.516192068048551889e+00 -4.042530970178023431e+00 -7.698854672914578146e+00 -2.194168366974222462e+00 2.516192068048551889e+00 -2.194168366974222462e+00 4.780568782069297917e+00
6.604217830310656900e+00 -3.917070497768642134e+00 2.013758020147065952e+00 -3.917070497768642134e+00 -3.771207570808736254e+00 -3.175636877153350301e+00 2.013758020147065952e+00 -3.175636877153350301e+00 5.421740380104900225e+00
7.815067075597413648e+00 -2.576957098294586856e+00 2.348311730935770114e-01 -2.576957098294586856e+00 -1.380711462078916020e-02 -3.356054634603157005e+00 2.348311730935770114e-01 -3.356054634603157005e+00 1.020218583996974004e+01
9.009448266433357944e+00 -2.555749044610423848e+00 3.072061252628557892e-01 -2.555749044610423848e+00 6.048382503404738930e-01 -4.445541323057445204e+00 3.072061252628557892e-01 -4.445541323057445204e+00 1.813162339201617712e+01
1.133990119685218545e+01 -2.996260941693948521e+00 1.596589499312946359e+00 -2.996260941693948521e+00 -1.319675082274395450e+00 -3.770566875725553935e+00 1.596589499312946359e+00 -3.770566875725553935e+00 1.522879838547193110e+01
1.647371691727581933e+01 -3.777730171467142295e+00 1.817439914343037755e+00 -3.777730171467142295e+00 6.671537465858811133e-01 -2.497515412290991943e+00 1.817439914343037755e+00 -2.497515412290991943e+00 1.070321533954303916e+01
1.367380032190677319e+01 -2.421704895970228311e+00 2.036327182351932663e+00 -2.421704895970228311e+00 7.842144216435139370e+00 -3.586306299787116902e+00 2.036327182351932663e+00 -3.586306299787116902e+00 9.258548768942018725e+00
1.803087842191343171e+01 -1.249634839667872033e+00 1.564867755963602169e+00 -1.249634839667872033e+00 1.167577025858259354e+01 -2.849428466001321159e+00 1.564867755963602169e+00 -2.849428466001321159e+00 8.542321385467765538e+00
2.003095232213176047e+01 -5.673025291456639252e-01 8.749239707352707285e-01 -5.673025291456639252e-01 4.911745812748772089e+00 -1.310478970605304661e-01 8.749239707352707285e-01 -1.310478970605304661e-01 8.531791055576723792e+00
1.047058255349790556e+01 -8.925552296956288378e-01 -1.570738591215536939e+00 -8.925552296956288378e-01 -7.582094712147230409e-01 2.126690989188211589e-01 -1.570738591215536939e+00 2.126690989188211589e-01 5.765967429892825180e+00
-3.927420881311062817e-01 -9.044270938394267934e-02 -1.084863066999327330e+00 -9.044270938394267934e-02 -6.868708837803541023e+00 2.224102516067665847e-01 -1.084863066999327330e+00 2.224102516067665847e-01 2.603435438383613576e+00
-8.736323228144772912e+00 9.704049003984254185e-01 1.276245374924154463e+00 9.704049003984254185e-01 -3.934158665752617523e+00 -1.715925245461216164e+00 1.276245374924154463e+00 -1.715925245461216164e+00 1.445235478025528320e+00
-1.286813750969367831e+01 -1.038274238006082317e+00 3.155825604404034035e+00 -1.038274238006082317e+00 -1.371913379431513036e+00 -3.997181961299066444e+00 3.155825604404034035e+00 -3.997181961299066444e+00 7.703051349148149818e+00
-1.863159601637196872e+01 -3.849831886107230261e+00 2.735081351292502294e+00 -3.849831886107230261e+00 -1.094116881526106333e+01 -7.946420491632234295e+00 2.735081351292502294e+00 -7.946420491632234295e+00 -2.709054338239082205e-02
-2.284452380419836359e+01 -3.043529358230471438e+00 1.351680645225151078e+00 -3.043529358230471438e+00 -2.127691820234585407e+01 -9.313249048963905707e+00 1.351680645225151078e+00 -9.313249048963905707e+00 -1.488780951468790903e+01
-2.049601247985788888e+01 -2.993510727773395885e+00 1.822731710171741959e+00 -2.993510727773395885e+00 -2.255788311228644005e+01 -7.442480722838739737e+00 1.822731710171741959e+00 -7.442480722838739737e+00 -1.218868604162379832e+01
-1.095081143859168193e+01 -2.833332761960250412e+00 3.269973885224176424e+00 -2.833332761960250412e+00 -2.167468681491293125e+01 -5.654613422272969814e+00 3.269973885224176424e+00 -5.654613422272969814e+00 -1.127265605061530707e+01
-1.043423504049064832e+01 -9.879460020064824155e-01 3.186762081271543590e+00 -9.879460020064824155e-01 -2.467577812087752775e+01 -3.780595098631037931e+00 3.186762081271543590e+00 -3.780595098631037931e+00 -1.826210380728840832e+01
-1.890197838223945226e+01 -1.093472657054231245e+00 3.624045023042425040e+00 -1.093472657054231245e+00 -2.834594736256004666e+01 -1.515087688151896206e+00 3.624045023042425040e+00 -1.515087688151896206e+00 -1.330561764623360688e+01
-2.609226220371585470e+01 -1.200665001998181047e+00 4.196393740790909987e+00 -1.200665001998181047e+00 -3.085620885173040762e+01 -6.854751667024647221e-02 4.196393740790909987e+00 -6.854751667024647221e-02 -6.740899343083504469e+00
-2.735745479012515347e+01 -1.241728727498703666e+00 3.945917545702371410e+00 -1.241728727498703666e+00 -3.396783125469735864e+01 -7.071196194480580122e-01 3.945917545702371410e+00 -7.071196194480580122e-01 -1.009250483038269053e+01
-2.080709914116927450e+01 -2.201245872208740018e+00 2.557359858265096708e+00 -2.201245872208740018e+00 -3.207988604135130828e+01 -1.017069778627593069e+00 2.557359858265096708e+00 -1.017069778627593069e+00 -1.265669488332435932e+01
-1.309710415572225628e+01 -2.981895687354226165e+00 1.018483259242493055e+00 -2.981895687354226165e+00 -2.491145900015277448e+01 -2.762101431977327159e+00 1.018483259242493055e+00 -2.762101431977327159e+00 -1.675109075127969760e+01
-1.070286139134565273e+00 -1.330044816174160260e+00 1.341995677515193108e+00 -1.330044816174160260e+00 -7.477622998328832260e+00 -3.394550223198476324e+00 1.341995677515193108e+00 -3.394550223198476324e+00 -1.171466571804774226e+01
4.024525791754978599e+00 6.417715427020125318e-01 2.313269264552141102e+00 6.417715427020125318e-01 6.476155935932801810e+00 -2.577626567452042661e+00 2.313269264552141102e+00 -2.577626567452042661e+00 -5.038518820970723233e+00
-3.899071978704548691e+00 1.040907460908421678e+00 1.621493730031111191e+00 1.040907460908421678e+00 8.225257074013815339e-01 -1.483933971412507269e+00 1.621493730031111191e+00 -1.483933971412507269e+00 -3.146554559039199450e+00
-8.513608613318124796e+00 -8.445206487158655184e-01 2.350860208680068286e+00 -8.445206487158655184e-01 -9.325752648865238470e+00 -2.177557217609516371e+00 2.350860208680068286e+00 -2.177557217609516371e+00 -8.219432284679323075e+00
-5.727270010410860923e-01 -2.252732272386092749e+00 2.783565240296163701e+00 -2.252732272386092749e+00 -9.329692831330298475e+00 -2.525708878079854447e+00 2.783565240296163701e+00 -2.525708878079854447e+00 -3.497383751748836200e+00
1.304632455645629463e+01 -3.545044086668137862e+00 2.693045276465220628e+00 -3.545044086668137862e+00 -1.372612964357622589e+00 -3.032167595547364591e+00 2.693045276465220628e+00 -3.032167595547364591e+00 3.870468616036952803e+00
1.546563046998777580e+01 -3.723553108702981618e+00 2.131468854001799418e+00 -3.723553108702981618e+00 3.748267602025342260e+00 -3.903428584689396796e+00 2.131468854001799418e+00 -3.903428584689396796e+00 9.377967540871628316e+00
8.751095096805737938e+00 -3.894275848526459249e+00 1.826959067682413007e+00 -3.894275848526459249e+00 9.222360746096349260e+00 -4.187346027379686753e+00 1.826959067682413007e+00 -4.187346027379686753e+00 1.363228119411740558e+01
1.031413648703533248e+01 -3.502558574031467309e+00 1.269436548660544117e+00 -3.502558574031467309e+00 1.412310683043187787e+01 -4.096337429176656997e+00 1.269436548660544117e+00 -4.096337429176656997e+00 1.377968865633266127e+01
1.345078529817284796e+01 -3.430737056916234096e+00 1.283339664263706270e+00 -3.430737056916234096e+00 1.791680979096382487e+01 -3.600255133219882886e+00 1.283339664263706270e+00 -3.600255133219882886e+00 1.497051804301000644e+01
1.259947612996086264e+01 -2.995156933575445102e+00 1.908140791776054668e+00 -2.995156933575445102e+00 1.362097976055746429e+01 -2.909872588255542070e+00 1.908140791776054668e+00 -2.909872588255542070e+00 1.223445199250038584e+01
9.575462435723990140e+00 -2.821180259925978984e+00 2.068659906661626469e+00 -2.821180259925978984e+00 4.320722876608614094e+00 -2.210356530884702408e+00 2.068659906661626469e+00 -2.210356530884702408e+00 1.099612077644557395e+01
5.576611098823421209e+00 -2.841620953861748511e+00 2.360467818515195049e+00 -2.841620953861748511e+00 -2.525605408344846481e-01 -1.808188874748372088e+00 2.360467818515195049e+00 -1.808188874748372088e+00 5.582781711300710548e+00
2.593151010117529243e+00 -1.789075737456874426e+00 2.389441529798444819e+00 -1.789075737456874426e+00 -2.751132519566914514e+00 -1.549116362737180674e+00 2.389441529798444819e+00 -1.549116362737180674e+00 4.076958971542004595e-01
3.563665664267697153e+00 -1.381246451591473301e+00 2.034330543931816226e+00 -1.381246451591473301e+00 -3.705399158700036555e+00 -1.784802132391509977e+00 2.034330543931816226e+00 -1.784802132391509977e+00 1.132837684220146107e-01
5.657340419557167266e+00 -1.737790919950932489e+00 1.344808612023933758e+00 -1.737790919950932489e+00 -6.310157995316587609e+00 -1.958753640524212747e+00 1.344808612023933758e+00 -1.958753640524212747e+00 1.066075252382651550e+00
-1.525685417969914637e+00 -1.856269073894020849e+00 1.373474589041506766e+00 -1.856269073894020849e+00 -9.379091411374195886e+00 -2.416223038359975650e+00 1.373474589041506766e+00 -2.416223038359975650e+00 -1.709386370766401431e+00
-9.234525950338893452e+00 -2.697913664968984548e+00 2.014771535041735895e+00 -2.697913664968984548e+00 -9.709619278874193071e+00 -3.704505698531064262e+00 2.014771535041735895e+00 -3.704505698531064262e+00 -6.804788453807545601e+00
-1.170758589966687424e+01 -3.115437328141586804e+00 2.279310212364560773e+00 -3.115437328141586804e+00 -4.916523490208210667e+00 -4.211282304025182555e+00 2.279310212364560773e+00 -4.211282304025182555e+00 -6.580746876546497148e+00
-1.014187057077095133e+01 -2.578771811065052599e+00 2.234127911532388211e+00 -2.578771811065052599e+00 -2.142181620343258874e+00 -3.114601074923014412e+00 2.234127911532388211e+00 -3.114601074923014412e+00 -4.381296661215383637e+00
-8.064547110670007513e+00 -2.083957838674332042e+00 2.391355416341725881e+00 -2.083957838674332042e+00 -6.434879440464397860e+00 -2.368182895074301797e+00 2.391355416341725881e+00 -2.368182895074301797e+00 -5.382845934312446623e+00
-1.199481558566247585e+01 -1.846050192565036774e+00 2.230633250369916887e+00 -1.846050192565036774e+00 -1.479821548669518450e+01 -2.243207484730513457e+00 2.230633250369916887e+00 -2.243207484730513457e+00 -7.932319826482918224e+00
-1.379662998591950185e+01 -1.837512053882503604e+00 1.392746567040514138e+00 -1.837512053882503604e+00 -1.759772479786260746e+01 -2.305710855628889000e+00 1.392746567040514138e+00 -2.305710855628889000e+00 -1.029861164628685621e+01
-9.722698469061738180e+00 -2.030497539106304927e+00 9.069139404735461207e-01 -2.030497539106304927e+00 -1.624661614885475203e+01 -2.468918827612422096e+00 9.069139404735461207e-01 -2.468918827612422096e+00 -8.406139608646796546e+00
-5.877600207632951879e+00 -2.263588512894616489e+00 1.436084453077808742e+00 -2.263588512894616489e+00 -1.102432716728280226e+01 -2.524634359208028478e+00 1.436084453077808742e+00 -2.524634359208028478e+00 -6.891672360882864723e+00
-2.454069673197732726e+00 -2.671094882700860484e+00 1.805839615416419131e+00 -2.671094882700860484e+00 -5.064016918603876150e+00 -3.205088538086431349e+00 1.805839615416419131e+00 -3.205088538086431349e+00 -4.467551493553354902e+00
-2.875348979308472330e+00 -2.472112568441072078e+00 1.387688370877068200e+00 -2.472112568441072078e+00 1.386304761627884963e+00 -4.056289944967506500e+00 1.387688370877068200e+00 -4.056289944967506500e+00 1.085723471716630861e+00
-2.114404347498113346e+00 -2.588089787524303631e+00 4.936725564968369451e-01 -2.588089787524303631e+00 5.162272509153512878e+00 -4.242562981918410081e+00 4.936725564968369451e-01 -4.242562981918410081e+00 7.952594941433057674e-01
-7.202375195505282823e-01 -4.218839143878816422e+00 -2.941141452437807668e-01 -4.218839143878816422e+00 -4.279419758576366584e-02 -4.195418217351179813e+00 -2.941141452437807668e-01 -4.195418217351179813e+00 4.485736396068133458e-01
1.716254038508636448e+00 -4.989473551478312174e+00 4.897550911397793166e-02 -4.989473551478312174e+00 7.322345255686627530e-01 -3.467311933818305381e+00 4.897550911397793166e-02 -3.467311933818305381e+00 3.530895125969241377e+00
4.481469374149250839e+00 -4.501631073874705180e+00 7.573122847108745281e-01 -4.501631073874705180e+00 1.871127124388187513e+00 -2.872566842722035219e+00 7.573122847108745281e-01 -2.872566842722035219e+00 5.962925766013499107e+00
7.791730562784469960e+00 -3.902068774999056799e+00 7.898186439992734842e-01 -3.902068774999056799e+00 -3.271875497571909430e-01 -1.742612446041981178e+00 7.898186439992734842e-01 -1.742612446041981178e+00 8.835788665984145140e+00
1.397954831914611873e+01 -2.996469402302583074e+00 8.234706506802026427e-01 -2.996469402302583074e+00 -2.848590161043626612e+00 -5.897908642599493101e-01 8.234706506802026427e-01 -5.897908642599493101e-01 6.166977675609971676e+00
1.078896526326736982e+01 -2.564682848216725208e+00 4.377398882508193867e-01 -2.564682848216725208e+00 -1.604151927213350204e+00 2.876003389909064234e-01 4.377398882508193867e-01 2.876003389909064234e-01 4.973132644859130203e+00
6.697810088848211052e+00 -2.523382905676807120e+00 -5.158776353187387587e-01 -2.523382905676807120e+00 3.069247565927203159e+00 7.008386746656148913e-01 -5.158776353187387587e-01 7.008386746656148913e-01 5.435335419536498236e+00
7.393892603377111961e+00 -2.104355813659672059e+00 -1.197771687595023060e+00 -2.104355813659672059e+00 4.148293803990362072e+00 5.620733186103999968e-01 -1.197771687595023060e+00 5.620733186103999968e-01 3.729937600888108662e+00
7.430582544648056675e+00 -2.939777844586810573e-01 -1.417624383620246897e+00 -2.939777844586810573e-01 4.604934178903018482e-01 -4.762487268329941292e-01 -1.417624383620246897e+00 -4.762487268329941292e-01 1.824303438970359847e+00
6.450003083987916774e+00 -2.209338371386950772e-01 -2.533860066524500798e+00 -2.209338371386950772e-01 7.449498056422551029e-01 -3.713901532272219974e+00 -2.533860066524500798e+00 -3.713901532272219974e+00 5.490170803417194101e+00
-4.007633197878873510e+00 -1.194465365524971068e+00 -1.401173948111443357e+00 -1.194465365524971068e+00 -3.922865192904191556e+00 -5.634254728918162591e+00 -1.401173948111443357e+00 -5.634254728918162591e+00 -1.765646116377931896e-01
-1.164611830167580742e+01 -2.410670924815145888e+00 6.121781340872884947e-01 -2.410670924815145888e+00 -1.269567237299377993e+01 -6.158909912787479790e+00 6.121781340872884947e-01 -6.158909912787479790e+00 -1.399125290793742593e+01
-8.848603095117130835e+00 -2.422720435405194994e+00 3.385364474716583971e-01 -2.422720435405194994e+00 -6.971258246616440779e+00 -5.239978397740990168e+00 3.385364474716583971e-01 -5.239978397740990168e+00 -8.338661351994826276e+00
4.759951094856809561e+00 -3.419072126484988816e-01 1.311212776415752623e+00 -3.419072126484988816e-01 -2.411724356475293263e+00 -4.499502536878430270e+00 1.311212776415752623e+00 -4.499502536878430270e+00 -3.757374733913482867e+00
2.949398775706562614e-01 1.571498849123468752e-02 1.518964736657806958e+00 1.571498849123468752e-02 -6.209683345500821794e+00 -4.754299629263184279e+00 1.518964736657806958e+00 -4.754299629263184279e+00 -9.003512034662437102e+00