7.955276432754241789e+00 -0.000000000000000000e+00 -0.000000000000000000e+00 -8.462951284703915111e-02 8.073745635035837864e+00 -0.000000000000000000e+00 4.230975645230091592e-02 -6.412963085053316470e-02 8.085075558745387525e+00
7.955348122701573210e+00 -0.000000000000000000e+00 -0.000000000000000000e+00 -8.462951284703915111e-02 8.073818392583024917e+00 -0.000000000000000000e+00 4.230975645230091592e-02 -6.412963085053316470e-02 8.085148418393982794e+00
7.956860665114922959e+00 -0.000000000000000000e+00 -0.000000000000000000e+00 -8.462951284703915111e-02 8.075353459631717357e+00 -0.000000000000000000e+00 4.230975645230091592e-02 -6.412963085053316470e-02 8.086685639608274911e+00
7.960104265803781054e+00 -0.000000000000000000e+00 -0.000000000000000000e+00 -8.462951284703915111e-02 8.078645363705524218e+00 -0.000000000000000000e+00 4.230975645230091592e-02 -6.412963085053316470e-02 8.089982163226492773e+00
7.963879601955809129e+00 -0.000000000000000000e+00 -0.000000000000000000e+00 -8.462951284703915111e-02 8.082476921795922920e+00 -0.000000000000000000e+00 4.230975645230091592e-02 -6.412963085053316470e-02 8.093819098158938630e+00
7.967690020939889983e+00 -0.000000000000000000e+00 -0.000000000000000000e+00 -8.462951284703915111e-02 8.086344085168367002e+00 -0.000000000000000000e+00 4.230975645230091592e-02 -6.412963085053316470e-02 8.097691688340145078e+00
7.972194302745887917e+00 -0.000000000000000000e+00 -0.000000000000000000e+00 -8.462951284703915111e-02 8.090915444301245429e+00 -0.000000000000000000e+00 4.230975645230091592e-02 -6.412963085053316470e-02 8.102269462481098472e+00
7.977544633859770862e+00 -0.000000000000000000e+00 -0.000000000000000000e+00 -8.462951284703915111e-02 8.096345452025486722e+00 -0.000000000000000000e+00 4.230975645230091592e-02 -6.412963085053316470e-02 8.107707090159475882e+00
7.982620457299802297e+00 -0.000000000000000000e+00 -0.000000000000000000e+00 -8.462951284703915111e-02 8.101496864133407527e+00 -0.000000000000000000e+00 4.230975645230091592e-02 -6.412963085053316470e-02 8.112865731267785208e+00
7.986535633034871573e+00 -0.000000000000000000e+00 -0.000000000000000000e+00 -8.462951284703915111e-02 8.105470344284858797e+00 -0.000000000000000000e+00 4.230975645230091592e-02 -6.412963085053316470e-02 8.116844787421140239e+00
7.989997372565056821e+00 -0.000000000000000000e+00 -0.000000000000000000e+00 -8.462951284703915111e-02 8.108983635702294634e+00 -0.000000000000000000e+00 4.230975645230091592e-02 -6.412963085053316470e-02 8.120363009057195214e+00
7.994788263720245425e+00 -0.000000000000000000e+00 -0.000000000000000000e+00 -8.462951284703915111e-02 8.113845872342796639e+00 -0.000000000000000000e+00 4.230975645230091592e-02 -6.412963085053316470e-02 8.125232068896421467e+00
8.000943665310899178e+00 -0.000000000000000000e+00 -0.000000000000000000e+00 -8.462951284703915111e-02 8.120092939574798052e+00 -0.000000000000000000e+00 4.230975645230091592e-02 -6.412963085053316470e-02 8.131487902665957890e+00
8.006468536556075932e+00 -0.000000000000000000e+00 -0.000000000000000000e+00 -8.462951284703915111e-02 8.125700086665370137e+00 -0.000000000000000000e+00 4.230975645230091592e-02 -6.412963085053316470e-02 8.137102918291237330e+00
8.009368293638202019e+00 -0.000000000000000000e+00 -0.000000000000000000e+00 -8.462951284703915111e-02 8.128643026646921399e+00 -0.000000000000000000e+00 4.230975645230091592e-02 -6.412963085053316470e-02 8.140049988113014834e+00
8.008760539741615503e+00 -0.000000000000000000e+00 -0.000000000000000000e+00 -8.462951284703915111e-02 8.128026222138434065e+00 -0.000000000000000000e+00 4.230975645230091592e-02 -6.412963085053316470e-02 8.139432318040510594e+00
8.004718515092726250e+00 -0.000000000000000000e+00 -0.000000000000000000e+00 -8.462951284703915111e-02 8.123924004052035741e+00 -0.000000000000000000e+00 4.230975645230091592e-02 -6.412963085053316470e-02 8.135324343293250493e+00
7.999754258978479804e+00 -0.000000000000000000e+00 -0.000000000000000000e+00 -8.462951284703915111e-02 8.118885820718336532e+00 -0.000000000000000000e+00 4.230975645230091592e-02 -6.412963085053316470e-02 8.130279089854250074e+00
7.997552630453716560e+00 -0.000000000000000000e+00 -0.000000000000000000e+00 -8.462951284703915111e-02 8.116651405756302395e+00 -0.000000000000000000e+00 4.230975645230091592e-02 -6.412963085053316470e-02 8.128041539328263454e+00
7.999085381960737706e+00 -0.000000000000000000e+00 -0.000000000000000000e+00 -8.462951284703915111e-02 8.118206982849930142e+00 -0.000000000000000000e+00 4.230975645230091592e-02 -6.412963085053316470e-02 8.129599299369326459e+00
8.002268990895927914e+00 -0.000000000000000000e+00 -0.000000000000000000e+00 -8.462951284703915111e-02 8.121438001779214488e+00 -0.000000000000000000e+00 4.230975645230091592e-02 -6.412963085053316470e-02 8.132834852402510251e+00
8.007021414347544663e+00 -0.000000000000000000e+00 -0.000000000000000000e+00 -8.462951284703915111e-02 8.126261197858445584e+00 -0.000000000000000000e+00 4.230975645230091592e-02 -6.412963085053316470e-02 8.137664816894778497e+00
8.015756017215540652e+00 -0.000000000000000000e+00 -0.000000000000000000e+00 -8.462951284703915111e-02 8.135125875581691091e+00 -0.000000000000000000e+00 4.230975645230091592e-02 -6.412963085053316470e-02 8.146541934459417433e+00
8.031249298501549561e+00 -0.000000000000000000e+00 -0.000000000000000000e+00 -8.462951284703915111e-02 8.150849881304576883e+00 -0.000000000000000000e+00 4.230975645230091592e-02 -6.412963085053316470e-02 8.162288005751289433e+00
8.054046201189711596e+00 -0.000000000000000000e+00 -0.000000000000000000e+00 -8.462951284703915111e-02 8.173986273248537771e+00 -0.000000000000000000e+00 4.230975645230091592e-02 -6.412963085053316470e-02 8.185456865098357682e+00
8.082372026209732496e+00 -0.000000000000000000e+00 -0.000000000000000000e+00 -8.462951284703915111e-02 8.202733923698405150e+00 -0.000000000000000000e+00 4.230975645230091592e-02 -6.412963085053316470e-02 8.214244857256005616e+00
8.113867850514283830e+00 -0.000000000000000000e+00 -0.000000000000000000e+00 -8.462951284703915111e-02 8.234698780752063740e+00 -0.000000000000000000e+00 4.230975645230091592e-02 -6.412963085053316470e-02 8.246254570737455936e+00
8.146014444334809923e+00 -0.000000000000000000e+00 -0.000000000000000000e+00 -8.462951284703915111e-02 8.267324098518908926e+00 -0.000000000000000000e+00 4.230975645230091592e-02 -6.412963085053316470e-02 8.278925671760759997e+00
8.176641531500072446e+00 -0.000000000000000000e+00 -0.000000000000000000e+00 -8.462951284703915111e-02 8.298407281284749359e+00 -0.000000000000000000e+00 4.230975645230091592e-02 -6.412963085053316470e-02 8.310052473696513786e+00
8.202728585378133985e+00 -0.000000000000000000e+00 -0.000000000000000000e+00 -8.462951284703915111e-02 8.324882821029570223e+00 -0.000000000000000000e+00 4.230975645230091592e-02 -6.412963085053316470e-02 8.336565166686471073e+00
8.221812875404214793e+00 -0.000000000000000000e+00 -0.000000000000000000e+00 -8.462951284703915111e-02 8.344251312445701174e+00 -0.000000000000000000e+00 4.230975645230091592e-02 -6.412963085053316470e-02 8.355960837994146573e+00
8.232553890276699704e+00 -0.000000000000000000e+00 -0.000000000000000000e+00 -8.462951284703915111e-02 8.355152281466441622e+00 -0.000000000000000000e+00 4.230975645230091592e-02 -6.412963085053316470e-02 8.366877104392829168e+00
8.233929617302599979e+00 -0.000000000000000000e+00 -0.000000000000000000e+00 -8.462951284703915111e-02 8.356548495685411027e+00 -0.000000000000000000e+00 4.230975645230091592e-02 -6.412963085053316470e-02 8.368275277926521483e+00
8.226240521654348825e+00 -0.000000000000000000e+00 -0.000000000000000000e+00 -8.462951284703915111e-02 8.348744894772288205e+00 -0.000000000000000000e+00 4.230975645230091592e-02 -6.412963085053316470e-02 8.360460726184433256e+00
8.209769916082114705e+00 -0.000000000000000000e+00 -0.000000000000000000e+00 -8.462951284703915111e-02 8.332029010545952019e+00 -0.000000000000000000e+00 4.230975645230091592e-02 -6.412963085053316470e-02 8.343721384482126524e+00
8.185058228211032016e+00 -0.000000000000000000e+00 -0.000000000000000000e+00 -8.462951284703915111e-02 8.306949318624210932e+00 -0.000000000000000000e+00 4.230975645230091592e-02 -6.412963085053316470e-02 8.318606498115974190e+00
8.153699470061487986e+00 -0.000000000000000000e+00 -0.000000000000000000e+00 -8.462951284703915111e-02 8.275123568900809801e+00 -0.000000000000000000e+00 4.230975645230091592e-02 -6.412963085053316470e-02 8.286736087173656173e+00
8.116986304835521082e+00 -0.000000000000000000e+00 -0.000000000000000000e+00 -8.462951284703915111e-02 8.237863674791981339e+00 -0.000000000000000000e+00 4.230975645230091592e-02 -6.412963085053316470e-02 8.249423906087807623e+00
8.075713967383524761e+00 -0.000000000000000000e+00 -0.000000000000000000e+00 -8.462951284703915111e-02 8.195976713707940675e+00 -0.000000000000000000e+00 4.230975645230091592e-02 -6.412963085053316470e-02 8.207478164842125778e+00
8.031274047205087641e+00 -0.000000000000000000e+00 -0.000000000000000000e+00 -8.462951284703915111e-02 8.150874998563995888e+00 -0.000000000000000000e+00 4.230975645230091592e-02 -6.412963085053316470e-02 8.162313158257504142e+00
7.986093724770629620e+00 -0.000000000000000000e+00 -0.000000000000000000e+00 -8.462951284703915111e-02 8.105021855165496447e+00 -0.000000000000000000e+00 4.230975645230091592e-02 -6.412963085053316470e-02 8.116395668936400298e+00
7.943866737631882557e+00 -0.000000000000000000e+00 -0.000000000000000000e+00 -8.462951284703915111e-02 8.062166027844543947e+00 -0.000000000000000000e+00 4.230975645230091592e-02 -6.412963085053316470e-02 8.073479701838628841e+00
7.907860929412157347e+00 -0.000000000000000000e+00 -0.000000000000000000e+00 -8.462951284703915111e-02 8.025624024633319920e+00 -0.000000000000000000e+00 4.230975645230091592e-02 -6.412963085053316470e-02 8.036886419069585230e+00
7.880281166243579882e+00 -0.000000000000000000e+00 -0.000000000000000000e+00 -8.462951284703915111e-02 7.997633546315941366e+00 -0.000000000000000000e+00 4.230975645230091592e-02 -6.412963085053316470e-02 8.008856661587309134e+00
7.862140728141404189e+00 -0.000000000000000000e+00 -0.000000000000000000e+00 -8.462951284703915111e-02 7.979222962575805767e+00 -0.000000000000000000e+00 4.230975645230091592e-02 -6.412963085053316470e-02 7.990420242192892708e+00
7.853232516564752963e+00 -0.000000000000000000e+00 -0.000000000000000000e+00 -8.462951284703915111e-02 7.970182090779785788e+00 -0.000000000000000000e+00 4.230975645230091592e-02 -6.412963085053316470e-02 7.981366683299903286e+00
7.853150326730862218e+00 -0.000000000000000000e+00 -0.000000000000000000e+00 -8.462951284703915111e-02 7.970098676981940855e+00 -0.000000000000000000e+00 4.230975645230091592e-02 -6.412963085053316470e-02 7.981283152447732121e+00
7.861017430400444539e+00 -0.000000000000000000e+00 -0.000000000000000000e+00 -8.462951284703915111e-02 7.978082936794137048e+00 -0.000000000000000000e+00 4.230975645230091592e-02 -6.412963085053316470e-02 7.989278616607433214e+00
7.875566007880451025e+00 -0.000000000000000000e+00 -0.000000000000000000e+00 -8.462951284703915111e-02 7.992848170274006847e+00 -0.000000000000000000e+00 4.230975645230091592e-02 -6.412963085053316470e-02 8.004064570206031348e+00
7.895886457914821577e+00 -0.000000000000000000e+00 -0.000000000000000000e+00 -8.462951284703915111e-02 8.013471230471461482e+00 -0.000000000000000000e+00 4.230975645230091592e-02 -6.412963085053316470e-02 8.024716570836897489e+00
7.920644464249281924e+00 -0.000000000000000000e+00 -0.000000000000000000e+00 -8.462951284703915111e-02 8.038597930626609767e+00 -0.000000000000000000e+00 4.230975645230091592e-02 -6.412963085053316470e-02 8.049878531404074167e+00
7.947434739512389434e+00 -0.000000000000000000e+00 -0.000000000000000000e+00 -8.462951284703915111e-02 8.065787164061195114e+00 -0.000000000000000000e+00 4.230975645230091592e-02 -6.412963085053316470e-02 8.077105919613027041e+00
7.974151813768864727e+00 -0.000000000000000000e+00 -0.000000000000000000e+00 -8.462951284703915111e-02 8.092902106387420247e+00 -0.000000000000000000e+00 4.230975645230091592e-02 -6.412963085053316470e-02 8.104258912459224362e+00
7.999756634652805509e+00 -0.000000000000000000e+00 -0.000000000000000000e+00 -8.462951284703915111e-02 8.118888231771457242e+00 -0.000000000000000000e+00 4.230975645230091592e-02 -6.412963085053316470e-02 8.130281504290351791e+00
8.022605524011718003e+00 -0.000000000000000000e+00 -0.000000000000000000e+00 -8.462951284703915111e-02 8.142077384566711373e+00 -0.000000000000000000e+00 4.230975645230091592e-02 -6.412963085053316470e-02 8.153503198529286067e+00
8.040625604157710882e+00 -0.000000000000000000e+00 -0.000000000000000000e+00 -8.462951284703915111e-02 8.160365817991980464e+00 -0.000000000000000000e+00 4.230975645230091592e-02 -6.412963085053316470e-02 8.171817296195824198e+00
8.053120738479954355e+00 -0.000000000000000000e+00 -0.000000000000000000e+00 -8.462951284703915111e-02 8.173047028638112721e+00 -0.000000000000000000e+00 4.230975645230091592e-02 -6.412963085053316470e-02 8.184516302441519287e+00
8.060738577198380383e+00 -0.000000000000000000e+00 -0.000000000000000000e+00 -8.462951284703915111e-02 8.180778311470520592e+00 -0.000000000000000000e+00 4.230975645230091592e-02 -6.412963085053316470e-02 8.192258434617476937e+00
8.064117000842157879e+00 -0.000000000000000000e+00 -0.000000000000000000e+00 -8.462951284703915111e-02 8.184207046269692754e+00 -0.000000000000000000e+00 4.230975645230091592e-02 -6.412963085053316470e-02 8.195691980975947644e+00
8.063657213808829383e+00 -0.000000000000000000e+00 -0.000000000000000000e+00 -8.462951284703915111e-02 8.183740412131777830e+00 -0.000000000000000000e+00 4.230975645230091592e-02 -6.412963085053316470e-02 8.195224692008805434e+00
8.059904521785455245e+00 -0.000000000000000000e+00 -0.000000000000000000e+00 -8.462951284703915111e-02 8.179931835385092498e+00 -0.000000000000000000e+00 4.230975645230091592e-02 -6.412963085053316470e-02 8.191410770668884567e+00
8.053316718805833219e+00 -0.000000000000000000e+00 -0.000000000000000000e+00 -8.462951284703915111e-02 8.173245927484192208e+00 -0.000000000000000000e+00 4.230975645230091592e-02 -6.412963085053316470e-02 8.184715480402990906e+00
8.044226207132554762e+00 -0.000000000000000000e+00 -0.000000000000000000e+00 -8.462951284703915111e-02 8.164020040796174271e+00 -0.000000000000000000e+00 4.230975645230091592e-02 -6.412963085053316470e-02 8.175476646986497897e+00
8.033290148107802509e+00 -0.000000000000000000e+00 -0.000000000000000000e+00 -8.462951284703915111e-02 8.152921123044887253e+00 -0.000000000000000000e+00 4.230975645230091592e-02 -6.412963085053316470e-02 8.164362154073867117e+00
8.020245148701748761e+00 -0.000000000000000000e+00 -0.000000000000000000e+00 -8.462951284703915111e-02 8.139681858778079260e+00 -0.000000000000000000e+00 4.230975645230091592e-02 -6.412963085053316470e-02 8.151104311088003485e+00
8.004509206894567797e+00 -0.000000000000000000e+00 -0.000000000000000000e+00 -8.462951284703915111e-02 8.123711578855820292e+00 -0.000000000000000000e+00 4.230975645230091592e-02 -6.412963085053316470e-02 8.135111620000749610e+00
7.986764859351376700e+00 -0.000000000000000000e+00 -0.000000000000000000e+00 -8.462951284703915111e-02 8.105702984216712537e+00 -0.000000000000000000e+00 4.230975645230091592e-02 -6.412963085053316470e-02 8.117077753819113894e+00
7.969277232420423296e+00 -0.000000000000000000e+00 -0.000000000000000000e+00 -8.462951284703915111e-02 8.087954933247837985e+00 -0.000000000000000000e+00 4.230975645230091592e-02 -6.412963085053316470e-02 8.099304796929606809e+00
7.955512263312730425e+00 -0.000000000000000000e+00 -0.000000000000000000e+00 -8.462951284703915111e-02 8.073984977560112242e+00 -0.000000000000000000e+00 4.230975645230091592e-02 -6.412963085053316470e-02 8.085315237139724331e+00
7.947163199483456175e+00 -0.000000000000000000e+00 -0.000000000000000000e+00 -8.462951284703915111e-02 8.065511580284537629e+00 -0.000000000000000000e+00 4.230975645230091592e-02 -6.412963085053316470e-02 8.076829949107599660e+00
7.944127259886237802e+00 -0.000000000000000000e+00 -0.000000000000000000e+00 -8.462951284703915111e-02 8.062430429771566764e+00 -0.000000000000000000e+00 4.230975645230091592e-02 -6.412963085053316470e-02 8.073744474802516891e+00
7.945519676033072187e+00 -0.000000000000000000e+00 -0.000000000000000000e+00 -8.462951284703915111e-02 8.063843581643039826e+00 -0.000000000000000000e+00 4.230975645230091592e-02 -6.412963085053316470e-02 8.075159609756575207e+00
7.950310944951085368e+00 -0.000000000000000000e+00 -0.000000000000000000e+00 -8.462951284703915111e-02 8.068706201672334544e+00 -0.000000000000000000e+00 4.230975645230091592e-02 -6.412963085053316470e-02 8.080029053521588622e+00
7.958507706162059492e+00 -0.000000000000000000e+00 -0.000000000000000000e+00 -8.462951284703915111e-02 8.077025028252664995e+00 -0.000000000000000000e+00 4.230975645230091592e-02 -6.412963085053316470e-02 8.088359553949720393e+00
7.971337979762140868e+00 -0.000000000000000000e+00 -0.000000000000000000e+00 -8.462951284703915111e-02 8.090046369038905283e+00 -0.000000000000000000e+00 4.230975645230091592e-02 -6.412963085053316470e-02 8.101399167641778476e+00
7.988612681827754081e+00 -0.000000000000000000e+00 -0.000000000000000000e+00 -8.462951284703915111e-02 8.107578324285691806e+00 -0.000000000000000000e+00 4.230975645230091592e-02 -6.412963085053316470e-02 8.118955725560944359e+00
8.008235735353549600e+00 -0.000000000000000000e+00 -0.000000000000000000e+00 -8.462951284703915111e-02 8.127493602414352480e+00 -0.000000000000000000e+00 4.230975645230091592e-02 -6.412963085053316470e-02 8.138898950888732386e+00
8.028801898785518532e+00 -0.000000000000000000e+00 -0.000000000000000000e+00 -8.462951284703915111e-02 8.148366035150344189e+00 -0.000000000000000000e+00 4.230975645230091592e-02 -6.412963085053316470e-02 8.159800674004120680e+00
8.050115121595190715e+00 -0.000000000000000000e+00 -0.000000000000000000e+00 -8.462951284703915111e-02 8.169996652399998283e+00 -0.000000000000000000e+00 4.230975645230091592e-02 -6.412963085053316470e-02 8.181461645596044718e+00
8.071649696487691372e+00 -0.000000000000000000e+00 -0.000000000000000000e+00 -8.462951284703915111e-02 8.191851918085506057e+00 -0.000000000000000000e+00 4.230975645230091592e-02 -6.412963085053316470e-02 8.203347580875009371e+00
8.091176417545005606e+00 -0.000000000000000000e+00 -0.000000000000000000e+00 -8.462951284703915111e-02 8.211669429171944756e+00 -0.000000000000000000e+00 4.230975645230091592e-02 -6.412963085053316470e-02 8.223192901964367252e+00
8.108262000284245374e+00 -0.000000000000000000e+00 -0.000000000000000000e+00 -8.462951284703915111e-02 8.229009448746571920e+00 -0.000000000000000000e+00 4.230975645230091592e-02 -6.412963085053316470e-02 8.240557254866921255e+00
8.121422309304545450e+00 -0.000000000000000000e+00 -0.000000000000000000e+00 -8.462951284703915111e-02 8.242365739807738123e+00 -0.000000000000000000e+00 4.230975645230091592e-02 -6.412963085053316470e-02 8.253932288871199674e+00
8.128648225102997671e+00 -0.000000000000000000e+00 -0.000000000000000000e+00 -8.462951284703915111e-02 8.249699263240767522e+00 -0.000000000000000000e+00 4.230975645230091592e-02 -6.412963085053316470e-02 8.261276103470990506e+00
8.130708280025700674e+00 -0.000000000000000000e+00 -0.000000000000000000e+00 -8.462951284703915111e-02 8.251789996300878727e+00 -0.000000000000000000e+00 4.230975645230091592e-02 -6.412963085053316470e-02 8.263369770467212660e+00
8.128666330381777883e+00 -0.000000000000000000e+00 -0.000000000000000000e+00 -8.462951284703915111e-02 8.249717638140996456e+00 -0.000000000000000000e+00 4.230975645230091592e-02 -6.412963085053316470e-02 8.261294504157071117e+00
8.122121040833436112e+00 -0.000000000000000000e+00 -0.000000000000000000e+00 -8.462951284703915111e-02 8.243074876777731319e+00 -0.000000000000000000e+00 4.230975645230091592e-02 -6.412963085053316470e-02 8.254642420977464923e+00
8.111129559583710957e+00 -0.000000000000000000e+00 -0.000000000000000000e+00 -8.462951284703915111e-02 8.231919711459223521e+00 -0.000000000000000000e+00 4.230975645230091592e-02 -6.412963085053316470e-02 8.243471601565063978e+00
8.095625697272611276e+00 -0.000000000000000000e+00 -0.000000000000000000e+00 -8.462951284703915111e-02 8.216184967141149542e+00 -0.000000000000000000e+00 4.230975645230091592e-02 -6.412963085053316470e-02 8.227714776608094027e+00
8.075794227379525125e+00 -0.000000000000000000e+00 -0.000000000000000000e+00 -8.462951284703915111e-02 8.196058168928061605e+00 -0.000000000000000000e+00 4.230975645230091592e-02 -6.412963085053316470e-02 8.207559734368587101e+00
8.052493716899279619e+00 -0.000000000000000000e+00 -0.000000000000000000e+00 -8.462951284703915111e-02 8.172410669514187376e+00 -0.000000000000000000e+00 4.230975645230091592e-02 -6.412963085053316470e-02 8.183879050311736236e+00
8.027722759416370479e+00 -0.000000000000000000e+00 -0.000000000000000000e+00 -8.462951284703915111e-02 8.147270825342701528e+00 -0.000000000000000000e+00 4.230975645230091592e-02 -6.412963085053316470e-02 8.158703927283324830e+00
8.003863813319647136e+00 -0.000000000000000000e+00 -0.000000000000000000e+00 -8.462951284703915111e-02 8.123056574143223685e+00 -0.000000000000000000e+00 4.230975645230091592e-02 -6.412963085053316470e-02 8.134455696116443590e+00
7.980907353788942338e+00 -0.000000000000000000e+00 -0.000000000000000000e+00 -8.462951284703915111e-02 8.099758249252397846e+00 -0.000000000000000000e+00 4.230975645230091592e-02 -6.412963085053316470e-02 8.111124676580820037e+00
7.959665707724253636e+00 -0.000000000000000000e+00 -0.000000000000000000e+00 -8.462951284703915111e-02 8.078200274661591962e+00 -0.000000000000000000e+00 4.230975645230091592e-02 -6.412963085053316470e-02 8.089536449587155786e+00
7.941503974230660567e+00 -0.000000000000000000e+00 -0.000000000000000000e+00 -8.462951284703915111e-02 8.059768078400864511e+00 -0.000000000000000000e+00 4.230975645230091592e-02 -6.412963085053316470e-02 8.071078387341319882e+00
7.928142146234366194e+00 -0.000000000000000000e+00 -0.000000000000000000e+00 -8.462951284703915111e-02 8.046207267361975113e+00 -0.000000000000000000e+00 4.230975645230091592e-02 -6.412963085053316470e-02 8.057498546355974511e+00
7.920167411671339863e+00 -0.000000000000000000e+00 -0.000000000000000000e+00 -8.462951284703915111e-02 8.038113773828563069e+00 -0.000000000000000000e+00 4.230975645230091592e-02 -6.412963085053316470e-02 8.049393695186937592e+00
7.916458241598439471e+00 -0.000000000000000000e+00 -0.000000000000000000e+00 -8.462951284703915111e-02 8.034349367156620403e+00 -0.000000000000000000e+00 4.230975645230091592e-02 -6.412963085053316470e-02 8.045624005905404275e+00
7.916392108939119154e+00 -0.000000000000000000e+00 -0.000000000000000000e+00 -8.462951284703915111e-02 8.034282249655968045e+00 -0.000000000000000000e+00 4.230975645230091592e-02 -6.412963085053316470e-02 8.045556794218295948e+00
7.919761894840616989e+00 -0.000000000000000000e+00 -0.000000000000000000e+00 -8.462951284703915111e-02 8.037702218080600147e+00 -0.000000000000000000e+00 4.230975645230091592e-02 -6.412963085053316470e-02 8.048981561900301784e+00
7.926204735306686899e+00 -0.000000000000000000e+00 -0.000000000000000000e+00 -8.462951284703915111e-02 8.044241004700376507e+00 -0.000000000000000000e+00 4.230975645230091592e-02 -6.412963085053316470e-02 8.055529524428257204e+00
7.934782695012367881e+00 -0.000000000000000000e+00 -0.000000000000000000e+00 -8.462951284703915111e-02 8.052946706546734390e+00 -0.000000000000000000e+00 4.230975645230091592e-02 -6.412963085053316470e-02 8.064247443025291062e+00
7.945287046771156270e+00 -0.000000000000000000e+00 -0.000000000000000000e+00 -8.462951284703915111e-02 8.063607488090063669e+00 -0.000000000000000000e+00 4.230975645230091592e-02 -6.412963085053316470e-02 8.074923184891506622e+00
7.958371528122941463e+00 -0.000000000000000000e+00 -0.000000000000000000e+00 -8.462951284703915111e-02 8.076886822264219390e+00 -0.000000000000000000e+00 4.230975645230091592e-02 -6.412963085053316470e-02 8.088221154015391434e+00
7.973383202397223535e+00 -0.000000000000000000e+00 -0.000000000000000000e+00 -8.462951284703915111e-02 8.092122048929665468e+00 -0.000000000000000000e+00 4.230975645230091592e-02 -6.412963085053316470e-02 8.103477760343771763e+00
7.988659488349322046e+00 -0.000000000000000000e+00 -0.000000000000000000e+00 -8.462951284703915111e-02 8.107625827846245414e+00 -0.000000000000000000e+00 4.230975645230091592e-02 -6.412963085053316470e-02 8.119003295783114638e+00
8.002621848564771767e+00 -0.000000000000000000e+00 -0.000000000000000000e+00 -8.462951284703915111e-02 8.121796114170809489e+00 -0.000000000000000000e+00 4.230975645230091592e-02 -6.412963085053316470e-02 8.133193467334214333e+00
8.014024398171262220e+00 -0.000000000000000000e+00 -0.000000000000000000e+00 -8.462951284703915111e-02 8.133368469435849235e+00 -0.000000000000000000e+00 4.230975645230091592e-02 -6.412963085053316470e-02 8.144782062137773337e+00
8.022151408290744357e+00 -0.000000000000000000e+00 -0.000000000000000000e+00 -8.462951284703915111e-02 8.141616506198666059e+00 -0.000000000000000000e+00 4.230975645230091592e-02 -6.412963085053316470e-02 8.153041673407962264e+00
8.026941313853606985e+00 -0.000000000000000000e+00 -0.000000000000000000e+00 -8.462951284703915111e-02 8.146477742568924540e+00 -0.000000000000000000e+00 4.230975645230091592e-02 -6.412963085053316470e-02 8.157909731573955270e+00
8.029667065705357487e+00 -0.000000000000000000e+00 -0.000000000000000000e+00 -8.462951284703915111e-02 8.149244086052020108e+00 -0.000000000000000000e+00 4.230975645230091592e-02 -6.412963085053316470e-02 8.160679957078702529e+00
8.031038674171966818e+00 -0.000000000000000000e+00 -0.000000000000000000e+00 -8.462951284703915111e-02 8.150636120378051075e+00 -0.000000000000000000e+00 4.230975645230091592e-02 -6.412963085053316470e-02 8.162073944852487273e+00
8.030474305041643390e+00 -0.000000000000000000e+00 -0.000000000000000000e+00 -8.462951284703915111e-02 8.150063346718107837e+00 -0.000000000000000000e+00 4.230975645230091592e-02 -6.412963085053316470e-02 8.161500367417172441e+00
8.027013282249335191e+00 -0.000000000000000000e+00 -0.000000000000000000e+00 -8.462951284703915111e-02 8.146550782711484473e+00 -0.000000000000000000e+00 4.230975645230091592e-02 -6.412963085053316470e-02 8.157982874212923008e+00
8.021263041322452381e+00 -0.000000000000000000e+00 -0.000000000000000000e+00 -8.462951284703915111e-02 8.140714909755525142e+00 -0.000000000000000000e+00 4.230975645230091592e-02 -6.412963085053316470e-02 8.152138811751106218e+00
8.013895679650204329e+00 -0.000000000000000000e+00 -0.000000000000000000e+00 -8.462951284703915111e-02 8.133237834050826010e+00 -0.000000000000000000e+00 4.230975645230091592e-02 -6.412963085053316470e-02 8.144651243431804133e+00
8.005478432878412320e+00 -0.000000000000000000e+00 -0.000000000000000000e+00 -8.462951284703915111e-02 8.124695238458578217e+00 -0.000000000000000000e+00 4.230975645230091592e-02 -6.412963085053316470e-02 8.136096659976564283e+00
7.997268022633005735e+00 -0.000000000000000000e+00 -0.000000000000000000e+00 -8.462951284703915111e-02 8.116362559583986780e+00 -0.000000000000000000e+00 4.230975645230091592e-02 -6.412963085053316470e-02 8.127752287816282006e+00
7.990987109420832901e+00 -0.000000000000000000e+00 -0.000000000000000000e+00 -8.462951284703915111e-02 8.109988111623229301e+00 -0.000000000000000000e+00 4.230975645230091592e-02 -6.412963085053316470e-02 8.121368894564016117e+00
7.986791193971786385e+00 -0.000000000000000000e+00 -0.000000000000000000e+00 -8.462951284703915111e-02 8.105729711009866278e+00 -0.000000000000000000e+00 4.230975645230091592e-02 -6.412963085053316470e-02 8.117104518117050915e+00
7.984361080698250568e+00 -0.000000000000000000e+00 -0.000000000000000000e+00 -8.462951284703915111e-02 8.103263408726645523e+00 -0.000000000000000000e+00 4.230975645230091592e-02 -6.412963085053316470e-02 8.114634754860752253e+00
7.984227541167943976e+00 -0.000000000000000000e+00 -0.000000000000000000e+00 -8.462951284703915111e-02 8.103127880537785543e+00 -0.000000000000000000e+00 4.230975645230091592e-02 -6.412963085053316470e-02 8.114499036484987826e+00
7.987528349770495417e+00 -0.000000000000000000e+00 -0.000000000000000000e+00 -8.462951284703915111e-02 8.106477844460384219e+00 -0.000000000000000000e+00 4.230975645230091592e-02 -6.412963085053316470e-02 8.117853701427526047e+00
7.995477204415494477e+00 -0.000000000000000000e+00 -0.000000000000000000e+00 -8.462951284703915111e-02 8.114545072675989346e+00 -0.000000000000000000e+00 4.230975645230091592e-02 -6.412963085053316470e-02 8.125932250420966341e+00
8.007634247442894093e+00 -0.000000000000000000e+00 -0.000000000000000000e+00 -8.462951284703915111e-02 8.126883157204257913e+00 -0.000000000000000000e+00 4.230975645230091592e-02 -6.412963085053316470e-02 8.138287649038570493e+00
8.020803434746085259e+00 -0.000000000000000000e+00 -0.000000000000000000e+00 -8.462951284703915111e-02 8.140248458762558315e+00 -0.000000000000000000e+00 4.230975645230091592e-02 -6.412963085053316470e-02 8.151671706184906441e+00
8.031535784656448129e+00 -0.000000000000000000e+00 -0.000000000000000000e+00 -8.462951284703915111e-02 8.151140633783919398e+00 -0.000000000000000000e+00 4.230975645230091592e-02 -6.412963085053316470e-02 8.162579166244283257e+00
8.040942659005645865e+00 -0.000000000000000000e+00 -0.000000000000000000e+00 -8.462951284703915111e-02 8.160687594389738564e+00 -0.000000000000000000e+00 4.230975645230091592e-02 -6.412963085053316470e-02 8.172139524142982836e+00
8.052174489673847191e+00 -0.000000000000000000e+00 -0.000000000000000000e+00 -8.462951284703915111e-02 8.172086688387121711e+00 -0.000000000000000000e+00 4.230975645230091592e-02 -6.412963085053316470e-02 8.183554614541284522e+00