-3.730767245199999999e-02 8.035780806537999865e+00 2.462934743500000065e-02 2.685924066999999856e-03 4.023878328216000000e+00 7.540122849999999870e-03 6.896443615000000076e-03 3.988988106384999899e+00 4.079943045368000121e+00 3.906778812574000170e+00 8.022842114318999407e+00 1.729685966599999944e-02 3.939885680616999952e+00 8.015270212098000613e+00 4.074197738495000110e+00 3.936638188983000219e+00 4.022726866282999580e+00 9.365727968000000375e-03 3.961494809342000156e+00 3.993297588043999813e+00 4.075765659355999659e+00 1.250735411270000041e-01 7.872201713414000324e+00 4.205705218697000092e+00 1.976567336095000016e+00 1.901795161557999991e+00 2.133976674223999836e+00 2.062733363936999798e+00 1.894352318878000041e+00 6.138830941655999851e+00 2.014110886165000114e+00 5.999047001282000302e+00 2.097219509103999791e+00 2.017127022262999780e+00 5.938884692033999713e+00 6.113926272742999934e+00 6.081775254863999614e+00 1.849578724904999971e+00 6.039320217300000238e+00 6.022730192473000344e+00 6.061305129691000104e+00 2.134789576011999923e+00 6.011005858053000139e+00 5.928509654075000412e+00 6.109232131744000149e+00 5.971927957054999681e+00 1.983211950152000025e+00 2.040298928972999803e+00 1.973955028060000005e+00 1.990317499350999997e+00 8.006511107073999156e+00 3.689306397099999940e-02 2.035997466752000218e+00 1.990807693455999949e+00 1.935246727216000107e+00 1.672959435600000072e-02 2.019771774529000030e+00 1.945610682022000049e+00 2.001106506158000009e+00 3.986462251269999868e+00 7.937309487050000278e+00 1.941981929211000102e+00 6.019323387117999857e+00 1.960385776154000004e+00 -5.537809426999999902e-03 5.975930277956000403e+00 1.932571995933999975e+00 6.032152327051999663e+00 8.017743884089000517e+00 7.883619866379000030e+00 6.101477197403999853e+00 2.030958285375000116e+00 1.927733565780000102e+00 4.101325990579000269e+00 2.015939616905999987e+00 1.876023104426000065e+00 6.093740196946000331e+00 4.033417129137999879e+00 7.902091862579999848e+00 6.084606146939999682e+00 5.987645568828000364e+00 1.924686428333000077e+00 4.083505211552999725e+00 6.007004799265000194e+00 5.967811184571999661e+00 1.964519361068000070e+00 8.019022161577000318e+00 3.858680798233999898e+00 2.023069072283000036e+00 1.973721298585999984e+00 5.839356420475000142e+00 7.997381221707000165e+00 1.997532413604999890e+00 5.895234691389999782e+00 2.029181946345000043e+00 4.125173441091999571e+00 3.935193144599999915e+00 1.960422924548000045e+00 6.054455659051999561e+00 5.998555900303999877e+00 -1.957976952399999998e-02 5.996389417471999828e+00 5.947985349871999894e+00 6.004088570708000283e+00 8.008379135364000589e+00 3.856420203370999999e+00 6.059333321852999887e+00 2.030144628436000076e+00 5.887863004687000412e+00 4.114944954477000039e+00 1.979176553362999913e+00 5.940331438418000154e+00 6.063911413786000182e+00 4.000860457917999824e+00 3.900657139840999932e+00 6.042437269032999936e+00 6.030880264717000117e+00 5.955034583849999841e+00 4.079380923323999930e+00 6.050013189283999893e+00
-2.343500611700000125e-02 8.030419419674000636e+00 4.004305341199999868e-02 4.856583868000000255e-03 4.010980270420000160e+00 3.773800355999999689e-02 7.908254394776999874e+00 4.003457025954999970e+00 4.071468853976999647e+00 3.950395583814000133e+00 7.970605401631000397e+00 2.310993693600000079e-02 4.032601887424999809e+00 -2.213665700800000052e-02 4.051924580021999844e+00 3.932608656470999886e+00 4.018181016717999654e+00 1.839021406500000039e-02 3.921348037095000016e+00 3.990060029582000123e+00 4.078620044496999775e+00 1.708712985370000048e-01 7.909669237025999777e+00 4.142193299110999760e+00 2.048012787629000186e+00 1.922605648178000060e+00 2.133640268210999835e+00 2.071769336137999851e+00 1.861738950824000094e+00 6.181752991943000097e+00 2.004607970757999791e+00 6.058107452486000355e+00 2.093120638644000220e+00 2.039226827627000027e+00 5.896587061484999559e+00 6.078393034738000189e+00 6.068285368479999775e+00 1.810711554073000107e+00 6.006297730277999847e+00 6.034060145625000260e+00 6.091193376642999979e+00 2.121495673236000190e+00 5.996717629855999654e+00 5.907052490167999714e+00 6.050361937707999793e+00 5.967908835155999903e+00 1.969802266389999890e+00 2.079112696950999872e+00 1.970942951580000102e+00 2.133189678917999821e+00 7.999443572296000227e+00 7.943324670241000085e+00 2.031815576766000220e+00 2.048037866356999803e+00 1.950382856205000071e+00 3.538638110600000192e-02 1.966102332354999982e+00 2.004771251040999847e+00 2.091927511915999904e+00 3.908503465988999892e+00 7.964911899387000283e+00 1.888803239090000030e+00 6.002049190576999926e+00 2.014945846893000159e+00 8.288056742900000440e-02 5.943430652726999774e+00 1.908526085372000081e+00 6.060711604759999815e+00 7.955520233815000175e+00 -3.390363868999999968e-03 6.143149252431999940e+00 2.043656067169000057e+00 1.941864898796999972e+00 4.175119507866999591e+00 2.010747986105000162e+00 1.918610528879999944e+00 6.080651574381000124e+00 4.092846086191999966e+00 7.903532501274000310e+00 6.137373419874999847e+00 5.975463090772000108e+00 1.814894495127999940e+00 4.180076953396000050e+00 5.946808561677999982e+00 6.013405590180999738e+00 1.863021496076999961e+00 8.083956870158999664e+00 3.819531642819999906e+00 2.007728156260999874e+00 1.872941894173000055e+00 5.772695268108999578e+00 7.969659111717000144e+00 2.100260162290000121e+00 5.741937401041999678e+00 2.035614504628000088e+00 4.212400084758000318e+00 4.013380422584999607e+00 1.906990426571000041e+00 6.149559984925000222e+00 5.858541311665000251e+00 8.021279553696999187e+00 5.929570801264000046e+00 5.971054679813000199e+00 5.916656688682000009e+00 7.962285247457000281e+00 3.879912255319000192e+00 6.047363253572999753e+00 2.048733566385000149e+00 5.832629564201999628e+00 4.143599698969000045e+00 1.945021137829000102e+00 5.932721495218999941e+00 6.019254069867000290e+00 3.963497749746999865e+00 3.948520922266999911e+00 6.089076305218999785e+00 6.032961984914000375e+00 5.960189078464999568e+00 4.107994029799000302e+00 6.130670300689000207e+00
-1.157997881400000054e-02 8.025702434879999458e+00 5.162669203499999776e-02 4.250045073999999742e-03 4.001598676622999839e+00 6.681131438500000075e-02 7.858712269529999794e+00 4.019940313551000344e+00 4.063529105824000176e+00 3.995158814919999912e+00 7.919915291488999642e+00 2.559760915900000100e-02 4.039511943372000147e+00 9.368481418000000616e-03 4.034528054663000241e+00 3.932426718939999954e+00 4.016484811676000355e+00 2.703930681099999886e-02 3.882493054734000193e+00 3.991561843958999933e+00 4.081730645698000259e+00 2.182975205090000037e-01 7.938637883793999706e+00 4.091590235225000427e+00 2.086381993444000216e+00 1.949615210294999956e+00 2.118270723571999969e+00 2.085988677785000078e+00 1.838872585295999951e+00 6.220329241054000313e+00 2.000645984798000043e+00 6.094971474361000396e+00 2.095896248148000129e+00 2.051356847717999976e+00 5.891351062193000310e+00 6.046937992926999961e+00 6.051217730320000321e+00 1.759244978571000040e+00 6.005897341059999839e+00 6.040344391997000351e+00 6.100017930709999980e+00 2.104555371255000029e+00 5.991526556690000227e+00 5.900812964003000261e+00 6.016412893090000047e+00 5.965255746529999570e+00 1.963838796487000105e+00 2.106716814043000152e+00 1.957489865746999902e+00 2.232324534541000105e+00 7.989538642971999671e+00 7.924866072973999920e+00 2.020899680047000047e+00 2.120849896480999863e+00 1.971290918323000074e+00 6.181422496800000055e-02 1.940182356847999889e+00 2.066820234675000201e+00 2.158364364900000165e+00 3.900810450125999918e+00 3.043298450100000163e-02 1.852170917920000104e+00 5.964752518711000207e+00 2.053426711729999798e+00 1.457453730790000124e-01 5.919593645142000149e+00 1.905516801986000042e+00 6.088918500441000248e+00 7.940593930400999589e+00 1.108626520300000015e-02 6.189576647414999577e+00 2.066564643787999866e+00 1.947786948767999959e+00 4.235281801280000202e+00 2.007375778650999809e+00 1.953453179612999913e+00 6.108419699252999990e+00 4.071712138151999838e+00 7.896762580144000232e+00 6.206131327625000083e+00 5.940392134021999837e+00 1.744447629913999931e+00 4.136896195880000349e+00 5.903238282697000017e+00 6.019665067811000192e+00 1.831990256694000063e+00 4.682718559599999969e-02 3.855863682144999860e+00 2.000617938501000115e+00 1.793313578782000040e+00 5.734800777229000168e+00 7.982325488497999721e+00 2.186480844720000150e+00 5.627874344075999957e+00 2.063033952719000030e+00 4.201251951610999846e+00 4.028481415967999801e+00 1.893754709782000001e+00 6.237675184829000408e+00 5.918354224251999973e+00 -4.372052675500000263e-02 5.875990891352000034e+00 5.997309761382999760e+00 5.896266374208000371e+00 7.959950530638000288e+00 3.890623410039999897e+00 6.062618097504000048e+00 2.056018984005000050e+00 5.803947158637000392e+00 4.128909781888999930e+00 1.942471534930999999e+00 5.936346295027999709e+00 5.971312779708999763e+00 3.935641688561999807e+00 3.977104554037000028e+00 6.110957983385000070e+00 6.022620388608999953e+00 5.972388832563000349e+00 4.063934027254999748e+00 6.162468252403000335e+00
-1.999360594000000168e-03 8.022753826262999155e+00 5.837701437400000248e-02 -3.635485039999999880e-04 3.996232806076000177e+00 9.325387495299999885e-02 7.815168038050000376e+00 4.036873064036999637e+00 4.056906212491999675e+00 4.040750924263000421e+00 7.872515075441000043e+00 2.513637866700000126e-02 4.043643394479000008e+00 3.442630358200000212e-02 4.022694770871999559e+00 3.937412352149999961e+00 4.018280520242000442e+00 3.479469911400000226e-02 3.846778525932000203e+00 3.999416607492999987e+00 4.084818744067000296e+00 2.645914482460000050e-01 7.962911928560999719e+00 4.056212875381000060e+00 2.089647920731999786e+00 1.983140305182000018e+00 2.091809112221000078e+00 2.102135617721000216e+00 1.856905234005999938e+00 6.242659962030000287e+00 2.010522098981999850e+00 6.106554500590999801e+00 2.103252125956999841e+00 2.044975656810999798e+00 5.909167253427000333e+00 6.025321435329000330e+00 6.037115375098999870e+00 1.714126338987000064e+00 6.035153014376000158e+00 6.034232974551000162e+00 6.086126026817000323e+00 2.087494372942999998e+00 6.000899834808000044e+00 5.897585005179999840e+00 6.010182382681000135e+00 5.964418390851999874e+00 1.966809065530999989e+00 2.121432816335000027e+00 1.928410889667000028e+00 2.261198433252999962e+00 8.018632850700999626e+00 1.249725141199999924e-02 2.001764906927999910e+00 2.206990742208000178e+00 1.995242064107999980e+00 1.046891053259999954e-01 1.947689276605000019e+00 2.130180208301999834e+00 2.176804353394000024e+00 3.932604691303999811e+00 1.436383611800000001e-02 1.825391685547999909e+00 5.908335422596000086e+00 2.071597803106000057e+00 8.934363093199999828e-02 5.907071580382999620e+00 1.928181067913999902e+00 6.107824022654999574e+00 7.946537712261999786e+00 -3.580147080200000304e-02 6.238984172823999863e+00 2.095060756526999857e+00 1.942136783597000038e+00 4.256713338352000164e+00 2.003169361532000092e+00 1.972874095027999930e+00 6.180384663852000138e+00 3.995648188084000019e+00 7.888166358541999656e+00 6.280539187733999995e+00 5.881951829592999559e+00 1.738773784106000031e+00 4.045261124238000328e+00 5.891296056300999950e+00 6.074136651466999659e+00 1.750319211989999957e+00 4.685377998999999682e-02 3.919241643386000007e+00 2.003772899295999999e+00 1.745978787842999980e+00 5.746974837160999883e+00 8.006984124077000331e+00 2.237895216276000188e+00 5.575790650220000089e+00 2.106154339909000139e+00 4.131511650543999714e+00 3.990783151407999885e+00 1.922059074209000018e+00 6.313524439111000142e+00 5.927085039738999583e+00 -3.196879787999999667e-02 5.842240435334000281e+00 6.025878580841999899e+00 5.959842486948000229e+00 8.001994218015999749e+00 3.883890417372000137e+00 6.106900664460000350e+00 2.043410378238999847e+00 5.815693471118000168e+00 4.088179498606000273e+00 1.967294939831000011e+00 5.948869085403999613e+00 5.921892550336999683e+00 3.939322039674999942e+00 3.965489463688999905e+00 6.093758044109000238e+00 6.000666358396999911e+00 5.995269848879999586e+00 4.001069931707999849e+00 6.139014206846000299e+00
6.543382030000000245e-03 8.021168013750999748e+00 6.056346171199999961e-02 -9.126919541999999400e-03 3.994101189635999916e+00 1.161300775750000042e-01 7.777841184573000000e+00 4.050946041046000090e+00 4.051617338972000049e+00 4.084465358971000271e+00 7.829791231274000118e+00 2.259275345599999832e-02 4.043096901346999950e+00 5.316711544600000172e-02 4.014972609415999649e+00 3.946626342042999891e+00 4.022959480572000146e+00 4.145617759800000052e-02 3.815542116567999908e+00 4.013122821256000172e+00 4.087136868594000383e+00 3.069003784289999759e-01 7.989428959952999953e+00 4.033895511016000412e+00 2.069400647640999846e+00 2.016435794108999868e+00 2.071905223888999892e+00 2.111011588405999895e+00 1.896201312449999898e+00 6.240262353449000265e+00 2.029930919203000173e+00 6.099734952849000358e+00 2.108303826642000001e+00 2.019488076311000135e+00 5.935360250231999757e+00 6.020006402025000369e+00 6.037985369235999933e+00 1.698868393586000058e+00 6.079764866480999785e+00 6.015756982583000401e+00 6.061249873877000205e+00 2.079843324307999897e+00 6.024675599713999574e+00 5.885990096820999717e+00 6.020042747992000010e+00 5.969063991186000173e+00 1.974933383675000043e+00 2.124925874945000182e+00 1.884426548189999995e+00 2.214373667339999852e+00 8.079858871326999648e+00 1.003825083170000049e-01 1.981280292104000029e+00 2.285408564592000147e+00 2.020021505693000208e+00 1.503091296780000030e-01 1.976811657902000086e+00 2.190735793431000111e+00 2.132920037546000014e+00 3.950152670551999812e+00 7.917629807195000424e+00 1.800663596728000027e+00 5.846193551688999790e+00 2.071440063182000024e+00 -1.843837784799999893e-02 5.921736179464000216e+00 1.964609573653999908e+00 6.100563072337999770e+00 7.932758708389999747e+00 7.856108162603000267e+00 6.276531309083000387e+00 2.115569473568000181e+00 1.927393399187000034e+00 4.235678578241000025e+00 1.996310845320000027e+00 1.970856931272999990e+00 6.265204731785999570e+00 3.927089689233000058e+00 7.880876628135999873e+00 6.326218594392999606e+00 5.817845424078999628e+00 1.799025233976000004e+00 4.014241611452000313e+00 5.916665220920999779e+00 6.174439467903000356e+00 1.632026215038999917e+00 8.066677003942999136e+00 3.938677470125000024e+00 2.018993694940999895e+00 1.730344415785000090e+00 5.811397850768999618e+00 8.001759351545999266e+00 2.244661643946999963e+00 5.586845419494999909e+00 2.144010915668999928e+00 4.090022076095999992e+00 3.931950705803000101e+00 1.975859032790999947e+00 6.364120270465999596e+00 5.860749450185999798e+00 8.018169891523999837e+00 5.831318465334000223e+00 6.052090588185000009e+00 6.072442698999999777e+00 8.054616204278000069e+00 3.873051174455000023e+00 6.159873152853999834e+00 2.008826052118000138e+00 5.866939411051999897e+00 4.063536431669000137e+00 1.992226145359000000e+00 5.950005809313999805e+00 5.877082991394999567e+00 3.983372361918999793e+00 3.921128568813000204e+00 6.033431062744000428e+00 5.973993116804000358e+00 6.025256676408999645e+00 3.996083579826000154e+00 6.090411888688000097e+00
1.636293986499999867e-02 8.020058782555999244e+00 5.883175727800000337e-02 -2.045379205600000166e-02 3.995133390684999952e+00 1.347247337899999953e-01 7.748269485754000208e+00 4.060444759233999612e+00 4.048206457436999806e+00 4.122662806089000043e+00 7.794399246343999721e+00 1.704173983100000164e-02 4.038311504390000195e+00 6.586630340900000158e-02 4.010546128940999822e+00 3.957754700311999940e+00 4.030428792146000028e+00 4.649572845600000170e-02 3.789875138309999780e+00 4.031586350783999961e+00 4.088813595042999793e+00 3.414401704819999828e-01 8.024031283522999658e+00 4.021721996932999588e+00 2.034560292582999974e+00 2.038073560346000068e+00 2.067450986806000035e+00 2.104486820842999872e+00 1.929974899190000093e+00 6.217727832083999928e+00 2.046589816702999887e+00 6.086408509874000394e+00 2.103361857207000085e+00 1.986473249709000077e+00 5.975147650331999571e+00 6.037098373024999631e+00 6.063378225871000282e+00 1.705108350775000003e+00 6.124938616008000380e+00 5.994164077734000173e+00 6.041223841637999747e+00 2.091133444783999984e+00 6.057213353825999569e+00 5.876256651641000417e+00 6.027521248215999883e+00 5.980415245907000354e+00 1.980147072262000041e+00 2.121097633338000055e+00 1.785713606260000086e+00 2.176201592846000121e+00 1.703408011600000133e-02 1.474439278880000093e-01 1.971279133824999974e+00 2.332855774147999828e+00 2.042405450791000110e+00 1.591640805389999969e-01 2.006120608354000190e+00 2.242838839676000173e+00 2.039888173707999908e+00 3.965339520823000008e+00 7.849177242815000177e+00 1.782927083017999959e+00 5.790416799023000216e+00 1.974659702690999996e+00 8.017576720584999705e+00 5.971086160135000043e+00 1.991805759348999949e+00 6.059853892556000154e+00 7.905861658293000360e+00 7.815804205024000417e+00 6.278876412700999943e+00 2.118996334045999852e+00 1.912669533554000045e+00 4.197120635622000329e+00 1.991383259270999906e+00 1.949925102784000108e+00 6.322688992796000385e+00 3.896705921086999869e+00 7.879815425778000204e+00 6.309387424188999560e+00 5.773342805166000069e+00 1.887481425522999912e+00 4.037249783471000164e+00 5.971183822059000335e+00 6.221208388363000275e+00 1.629733145532000105e+00 7.960981047473000061e+00 3.938096597399999954e+00 2.048528183274000103e+00 1.737545711409000049e+00 5.903627324808000232e+00 7.985965255568999943e+00 2.212167639668999986e+00 5.644330884903999923e+00 2.164480758810999994e+00 4.095653055088000372e+00 3.882274995202999790e+00 2.035591740722999976e+00 6.377990807810999918e+00 5.857633855575000048e+00 7.974315324501000113e+00 5.848686399953000326e+00 6.074195227158999622e+00 6.169101155874000320e+00 8.093921075348999850e+00 3.876836862969000208e+00 6.189969779984999754e+00 1.963960684744000096e+00 5.946177634772999987e+00 4.070939877009999819e+00 1.986748487989999923e+00 5.916408415774999874e+00 5.843376469137999685e+00 4.042495543581000383e+00 3.872144154299999919e+00 5.941811882056000194e+00 5.951152466255999585e+00 6.056147150593999662e+00 4.054171399748000226e+00 6.064657255576999972e+00
2.899219101199999871e-02 8.018953392540000280e+00 5.407261078199999960e-02 -3.199204632500000228e-02 4.000370731283999781e+00 1.479706482819999891e-01 7.728901563710000033e+00 4.065969791212999951e+00 4.047937265550999975e+00 4.152690622586000302e+00 7.770291677217000093e+00 6.188734282999999725e-03 4.032043696360999796e+00 7.239875569600000282e-02 4.010017581735000114e+00 3.968874517177999994e+00 4.041201886609999683e+00 4.827589797899999730e-02 3.770633233948999852e+00 4.053367827847999649e+00 4.091312505958000223e+00 4.493184909310000141e-01 -2.218240597700000052e-02 4.017555224228000377e+00 1.998059907423999970e+00 2.036404757861999926e+00 2.076170247463999807e+00 2.084599205976000125e+00 1.953528252879999982e+00 6.185582284168000378e+00 2.049051209867999823e+00 6.077669837461000313e+00 2.090190748288999867e+00 1.960723112007999980e+00 6.026356596653999809e+00 6.073560028174999736e+00 6.102995274599999576e+00 1.712731474524999964e+00 6.143129691184999963e+00 5.982927035521999670e+00 6.037581349438999823e+00 2.122359018001000130e+00 6.088275472269000232e+00 5.890874958937000194e+00 6.025052976310999675e+00 5.994281109479000058e+00 1.976972932979000008e+00 2.117885253498999809e+00 1.762210005608999985e+00 1.991331058027000056e+00 8.094436718221000859e+00 1.054769674380000022e-01 1.978464197786999890e+00 2.340387039932999791e+00 2.055966354749999780e+00 1.140455310240000020e-01 2.017426410590000163e+00 2.270285667297999854e+00 1.931219585288000085e+00 4.002394751399999784e+00 7.836007409521999811e+00 1.783111624216999980e+00 5.741960488210000157e+00 2.039802142721999889e+00 -3.006437532100000171e-02 6.041825134574000167e+00 1.990574033392999986e+00 5.999042325509999607e+00 7.915337800450999772e+00 7.836002228386999668e+00 6.230369802022999615e+00 2.108173758847999846e+00 1.908411388525999897e+00 4.163931577461999822e+00 1.995067103997000046e+00 1.923756691978999900e+00 6.325718306963000082e+00 3.892545094506000058e+00 7.900489042837000042e+00 6.229343762799000039e+00 5.763693100216999987e+00 1.951057982108000077e+00 4.055134254700999641e+00 6.034943099500999608e+00 6.246206370514999939e+00 1.694490365659000020e+00 7.926178251368000360e+00 3.958567938354999871e+00 2.089097198878000050e+00 1.762268255583000043e+00 5.987511474766000319e+00 8.007370646799000014e+00 2.158626768625000025e+00 5.725654211031000251e+00 2.168897582283999981e+00 4.104390433858999820e+00 3.863538198646999877e+00 2.085391356494000092e+00 6.353444557441999763e+00 5.819188118307000224e+00 7.967187865178999573e+00 5.898636440875000275e+00 6.051433798419999732e+00 6.258524450620999602e+00 1.023784350900000008e-02 3.900752401652999968e+00 6.172157652384999693e+00 1.931748077334999980e+00 6.034818068395000346e+00 4.092065403519000277e+00 1.940000483183000002e+00 5.843250800215000318e+00 5.828523249216999602e+00 4.065570998465999786e+00 3.840664934629999916e+00 5.854384917602000193e+00 5.942150058354999764e+00 6.086766821664999938e+00 4.110248990621999887e+00 6.097403399871000218e+00
4.371283017299999740e-02 8.017300313410000712e+00 4.763968875599999819e-02 7.935513832100999920e+00 4.010516808815999923e+00 1.544976404879999932e-01 7.720992695077000256e+00 4.068308735309999591e+00 4.051366826346000316e+00 4.215616731903000236e+00 7.695796666874000103e+00 8.097093299053000237e+00 4.026691251067999744e+00 7.232723468700000269e-02 4.013765998461000351e+00 3.979475452641000111e+00 4.054678689782000411e+00 4.497365037800000326e-02 3.757430627863000083e+00 4.076073886890999809e+00 4.095746907718999630e+00 4.616175236980000207e-01 2.450565110300000071e-02 4.018903049368000246e+00 1.970723009194000008e+00 2.006632124510999926e+00 2.089836437734000185e+00 2.062155332125000129e+00 1.973274849173999979e+00 6.155707468852999575e+00 2.031237440953999940e+00 6.076771631648999694e+00 2.076177941714000053e+00 1.954477146576000024e+00 6.074040797083999799e+00 6.121445063268000197e+00 6.138956808270999765e+00 1.720683505843999983e+00 6.121011226751000400e+00 5.992655634541000254e+00 6.049940308766999841e+00 2.163001910385999871e+00 6.107595008044000018e+00 5.933164040950000384e+00 6.021483993800999635e+00 6.005824366475000176e+00 1.967319847995999904e+00 2.117159910469000206e+00 1.700043852747000095e+00 1.891334591597999992e+00 8.051174327025000466e+00 4.274839708699999796e-02 1.997408523338999986e+00 2.313332485700999808e+00 2.053678946739000200e+00 4.348645111399999930e-02 2.006329290258999976e+00 2.244995691976999996e+00 1.841795621506000069e+00 4.035422089848999860e+00 7.910293658812999951e+00 1.797511512877999929e+00 5.700863167660999764e+00 2.015347596196999991e+00 4.294538769499999659e-02 6.110359934175000340e+00 1.957678818368999929e+00 5.947845838353000403e+00 7.988130475533999686e+00 7.905535503213999782e+00 6.140569187688000419e+00 2.093134462147999919e+00 1.920122420141999964e+00 4.127291599972999769e+00 2.013004702446000049e+00 1.908193920575999902e+00 6.273724115190000283e+00 3.902644778888999966e+00 -3.237903620100000129e-02 6.123346315819000019e+00 5.786016624734999780e+00 1.949754015696999909e+00 4.037012606598000097e+00 6.084711479066999829e+00 6.252601095941000331e+00 1.814671138458999966e+00 8.005361080623000447e+00 3.968023092307999988e+00 2.127633647440999809e+00 1.806015773951999970e+00 6.039143353637999923e+00 8.055577836715999140e+00 2.104551958730000116e+00 5.803985824694000151e+00 2.162044548278000189e+00 4.100799946953999964e+00 3.882783151447000147e+00 2.112228338781000136e+00 6.294550929298000419e+00 5.762035520019000323e+00 8.001849573829000306e+00 5.971463444830999556e+00 6.109207553092000254e+00 6.137162158461999972e+00 8.099823207175999684e+00 3.935985589237000148e+00 6.106091445217000313e+00 1.928568628795999995e+00 6.107009689711000000e+00 4.115685087384999719e+00 1.872419115168999948e+00 5.754982195676999979e+00 5.844399153604999952e+00 4.028149781816999564e+00 3.828172724295999974e+00 5.820209507668000271e+00 5.958201306041000400e+00 6.115968889608000225e+00 4.119473497672999862e+00 6.184661776355000029e+00
5.812955940500000307e-02 8.014055444647999238e+00 4.092246838900000239e-02 7.933627463445000139e+00 4.024745841538999613e+00 1.530307088029999874e-01 7.724600146940000300e+00 4.067220473258999824e+00 4.057715623604000399e+00 4.225985198795999764e+00 7.698390800819000290e+00 8.082424703193000326e+00 4.022113094688999801e+00 6.560262662799999644e-02 4.020903120715000334e+00 3.989902117324000130e+00 4.068390789370000427e+00 3.633451138100000227e-02 3.748148210381999856e+00 4.096655518448000244e+00 4.101430023852000062e+00 4.681960655819999984e-01 7.324724062300000393e-02 4.023329796835000138e+00 1.958386374575000088e+00 1.960494442989999975e+00 2.099230728823000103e+00 2.046796065682999988e+00 2.000905705789000066e+00 6.140534822649000191e+00 1.994244705449000010e+00 6.073582813414000192e+00 2.066601635925000124e+00 1.971356624166000104e+00 6.102767906220999627e+00 6.176747751711999967e+00 6.170504204798000103e+00 1.746881360541000072e+00 6.083104161696000212e+00 6.022120033741000356e+00 6.064449958691000120e+00 2.192224731777999924e+00 6.114367080481000194e+00 5.971053389187000349e+00 6.035315846982999943e+00 6.009501364015999769e+00 1.959647880119000041e+00 2.110622462584999859e+00 1.665974937421000002e+00 1.843871357750999973e+00 8.026226889087000771e+00 5.569298246400000013e-02 2.013311184239999996e+00 2.268216184871000074e+00 1.950507158283000031e+00 8.083339909868000106e+00 1.982242246747000003e+00 2.154340864303999847e+00 1.788595050359000016e+00 4.022216257336999945e+00 1.978741948600000120e-02 1.808277262924000039e+00 5.680667213099000357e+00 1.992772652381000098e+00 4.427458042699999874e-02 6.151228361173999737e+00 1.908781042241000092e+00 5.934534812142000071e+00 8.084746879000000774e+00 -1.998066662000000122e-03 6.045777201292000136e+00 2.083418848122000178e+00 1.946073713504999914e+00 4.066298325955999715e+00 2.048386684267000213e+00 1.912755377944999946e+00 6.191920160995000089e+00 3.937073032778999782e+00 -3.226305832000000203e-03 6.043154154093000052e+00 5.829705455171000139e+00 1.883948788574999922e+00 3.995739755209999799e+00 6.105005970019999673e+00 6.241764806846999747e+00 1.948330505224000087e+00 8.087851491844000762e+00 3.923271175213999928e+00 2.143699327712000002e+00 1.873603966497999984e+00 6.054849231296000056e+00 8.062709212222999966e+00 2.065718368754999812e+00 5.861003641362000138e+00 2.141671392275999786e+00 4.126603364876999969e+00 3.933233053264999945e+00 2.106332403130999786e+00 6.205310435460999585e+00 5.723511943173999583e+00 8.050700664739000700e+00 6.044122640574999927e+00 6.113656386267000364e+00 6.039993290563000272e+00 8.031917375974000350e+00 3.973828415714999895e+00 6.019238297640000290e+00 1.951023284319000073e+00 6.132943725505000110e+00 4.147477254627999876e+00 1.833519369271999988e+00 5.693747713866000204e+00 5.897701181117000147e+00 3.974933843502999942e+00 3.826057530592999800e+00 5.869295839197000042e+00 6.006952774472000378e+00 6.135392712573000118e+00 4.120407005100999775e+00 6.272185715830000063e+00