-2.863505984570000146e+04
-2.863357941529999880e+04
-2.863264530920000107e+04
-2.863261550229999921e+04
-2.863258349059999819e+04
-2.863216210520000095e+04
-2.863207931140000073e+04
-2.863221578909999880e+04
-2.863189777939999840e+04
-2.863188726479999968e+04
-2.863193425570000181e+04
-2.863220823810000002e+04
-2.863203525369999988e+04
-2.863172797599999831e+04
-2.863084365850000177e+04
-2.863077531359999921e+04
-2.863079550799999924e+04
-2.863026263699999981e+04
-2.862863136020000093e+04
-2.862910465230000045e+04
-2.862925591730000087e+04
-2.862869196190000002e+04
-2.862760801780000111e+04
-2.862697753899999952e+04
-2.862651092920000156e+04
-2.862583245800000077e+04
-2.862627848399999857e+04
-2.862675761749999947e+04
-2.862754414180000094e+04
-2.862732820980000179e+04
-2.862738146019999840e+04
-2.862837437660000069e+04
-2.862796648049999931e+04
-2.862797137669999938e+04
-2.862783598649999840e+04
-2.862815652209999826e+04
-2.862934958679999909e+04
-2.863055942019999929e+04
-2.863039321550000022e+04
-2.863047786320000159e+04
-2.863066554900000119e+04
-2.863131321739999839e+04
-2.863158282799999870e+04
-2.863101329659999828e+04
-2.863091094460000022e+04
-2.863129963159999897e+04
-2.863192904479999925e+04
-2.863214443989999927e+04
-2.863223617839999861e+04
-2.863253756129999965e+04
-2.863281799060000048e+04
-2.863294584810000015e+04
-2.863232478880000053e+04
-2.863200291260000085e+04
-2.863195112330000120e+04
-2.863181066039999860e+04
-2.863176847769999949e+04
-2.863181673439999940e+04
-2.863173941520000153e+04
-2.863161835380000048e+04
-2.863144822310000018e+04
-2.863157388789999823e+04
-2.863130755349999890e+04
-2.863167775070000062e+04
-2.863193481899999824e+04
-2.863133337409999876e+04
-2.863115195709999898e+04
-2.863036664820000078e+04
-2.863018986099999893e+04
-2.862977333060000092e+04
-2.862953982929999984e+04
-2.862886226900000111e+04
-2.862879439609999827e+04
-2.862881016549999913e+04
-2.862767306870000175e+04
-2.862694324330000018e+04
-2.862745326919999934e+04
-2.862964029630000005e+04
-2.862880852999999843e+04
-2.862790672139999879e+04
-2.862670475580000129e+04
-2.862791916829999900e+04
-2.862913356940000085e+04
-2.862775974370000040e+04
-2.862780453710000074e+04
-2.862938197759999821e+04
-2.862886713690000033e+04
-2.862841826439999932e+04
-2.862858176660000026e+04
-2.862939706339999975e+04
-2.863041755929999999e+04
-2.862996755940000003e+04
-2.863129485149999891e+04
-2.863107343979999860e+04
-2.863149650330000077e+04
-2.863122467580000011e+04
-2.863095008569999845e+04
-2.863171793350000007e+04
-2.863211035080000147e+04
-2.863240841720000026e+04
-2.863192264359999899e+04
-2.863193202720000045e+04
-2.863234879340000043e+04
-2.863201951030000055e+04
-2.863182204830000046e+04
-2.863167202919999909e+04
-2.863202711009999985e+04
-2.863241609809999864e+04
-2.863194243809999898e+04
-2.863214205210000000e+04
-2.863197864159999881e+04
-2.863233452369999941e+04
-2.863194128920000003e+04
-2.863192666380000082e+04
-2.863150924310000119e+04
-2.863158055339999919e+04
-2.863081384859999889e+04
-2.863049229859999832e+04
-2.863031362589999844e+04
-2.863082347709999885e+04
-2.863072894269999961e+04
-2.862972127639999962e+04
-2.862936293529999966e+04
-2.862975280149999890e+04
-2.863007090700000117e+04
-2.862905683219999992e+04
-2.863009364469999855e+04
-2.862978712259999884e+04
-2.862825392799999827e+04
-2.862759282760000133e+04
-2.862891298359999928e+04
-2.862859408479999911e+04
-2.862794136979999894e+04
-2.862865756419999889e+04
-2.862919248069999958e+04
-2.862855024979999871e+04
-2.862833233309999923e+04
-2.862899773880000066e+04
-2.862934587319999991e+04
-2.862895341760000156e+04
-2.862985983779999879e+04
-2.863044807500000024e+04
-2.862983923549999963e+04
-2.862953777940000145e+04
-2.863116761269999915e+04
-2.863203720859999885e+04
-2.863128907719999916e+04
-2.863133203309999953e+04
-2.863166144020000138e+04
-2.863185263699999996e+04
-2.863150960950000081e+04
-2.863174713540000084e+04
-2.863181731289999880e+04
-2.863168250009999974e+04
-2.863190621820000160e+04
-2.863200380980000045e+04
-2.863206252099999983e+04
-2.863196668460000001e+04
-2.863193489860000045e+04
-2.863226557200000025e+04
-2.863205224219999945e+04
-2.863148280460000024e+04
-2.863168348340000011e+04
-2.863207525049999822e+04
-2.863196985829999903e+04
-2.863146300459999838e+04
-2.863117904560000170e+04
-2.863157942499999990e+04
-2.863160758830000123e+04
-2.863091457399999854e+04
-2.863027291989999867e+04
-2.862997101200000179e+04
-2.863032671549999941e+04
-2.862989550959999906e+04
-2.862962783290000152e+04
-2.863004974410000068e+04
-2.862960358130000168e+04
-2.862904338529999950e+04
-2.862957600950000051e+04
-2.863025375060000079e+04
-2.862980727480000132e+04
-2.862895359489999828e+04
-2.862800712049999856e+04
-2.862748228060000110e+04
-2.862767859279999902e+04
-2.862842288479999843e+04
-2.862901989780000076e+04
-2.862931805600000007e+04
-2.862882814169999983e+04
-2.862872649489999822e+04
-2.862997197529999903e+04
-2.862990960840000116e+04
-2.863010616600000139e+04
-2.863041298670000106e+04
-2.863036050719999912e+04
-2.863064349159999983e+04
-2.863073318030000155e+04
-2.863114801430000080e+04
-2.863122939649999898e+04
-2.863105604379999932e+04
-2.863080981370000154e+04
-2.863151367279999977e+04
-2.863218192030000137e+04
-2.863186042989999987e+04
-2.863158094690000144e+04
-2.863141142570000011e+04
-2.863197718470000109e+04
-2.863222105739999824e+04
-2.863243898790000094e+04
-2.863191491440000027e+04
-2.863171480059999885e+04
-2.863158665029999975e+04
-2.863202365089999876e+04
-2.863186337220000132e+04
-2.863213539559999845e+04
-2.863211017419999916e+04
-2.863177535859999989e+04
-2.863127504889999909e+04
-2.863096110290000070e+04
-2.863101623380000092e+04
-2.863122716070000024e+04
-2.863117660640000031e+04
-2.863098859470000025e+04
-2.863072635060000175e+04
-2.863081731109999964e+04
-2.862936747580000156e+04
