-1.254099849799999999e-01 -8.479009427299999402e-02 -1.398557641600000068e-01 -1.328071218050000113e-01 1.390180342239999978e-01 5.863711626299999979e-02 1.028370780750000046e-01 8.773043939800000135e-02 -7.057168511299999336e-02 3.222970452699999711e-02 -7.591941984000000025e-03 -1.996513084459999865e-01 -8.902603084799999567e-02 -1.323318244689999923e-01 1.857909741850000129e-01 1.341280518050000092e-01 8.356547246400000684e-02 1.130651230900000040e-02 -5.939697362299999756e-02 1.123703557549999982e-01 1.904340540899999989e-02 1.133657361089999982e-01 -2.064136052190000126e-01 1.782601274479999887e-01 -2.712522996039999912e-01 -1.883381175400000024e-02 8.285794052599999848e-02 8.834360948199999897e-02 -3.829417924080000257e-01 7.001704370700000124e-02 -3.501368502880000122e-01 -5.024880484170000106e-01 2.269571068469999897e-01 -8.097716067900000148e-02 2.515716544750000172e-01 2.870506778700000067e-02 -1.833956945159999907e-01 -3.261806153790000051e-01 3.545466523069999987e-01 1.058374915070000033e-01 -2.523286072550000037e-01 -1.398250689960000015e-01 -4.792852868000000224e-03 1.512266602810000138e-01 5.862818258999999976e-01 -6.601441688100000149e-02 2.017412078799999953e-01 -2.012970953119999906e-01 4.359576460999999882e-03 -1.217778758459999999e-01 -2.497593262310000006e-01 3.641806675800000198e-02 3.259378381900000093e-02 8.699000113000000117e-03 1.166746159119999987e-01 8.471828244500000105e-02 1.359076803479999929e-01 1.259764773100000013e-02 -1.230796878729999988e-01 1.921487476229999936e-01 9.785930257300000379e-02 1.447146104150000001e-01 -1.194117269389999986e-01 -8.458471945600000430e-02 3.495324623439999834e-01 1.565743953300000046e-02 7.842124063300000281e-02 -1.210485166599999975e-02 1.163803633400000009e-01 -2.134879932169999883e-01 -2.301097878099999869e-02 5.575861276400000122e-02 -1.467899018500000083e-02 2.003098578549999953e-01 2.392759834800000165e-02 4.985969160000000046e-03 1.602797179179999976e-01 -4.713070761270000131e-01 -9.175430296200000335e-02 1.160049153889999990e-01 -9.942431637899999675e-02 1.326065425469999948e-01 -5.676426694689999941e-01 1.078862432759999934e-01 1.004197453899999953e-02 -1.454404258799999947e-02 -2.396419609260000139e-01 2.441730226970000028e-01 1.810884201500000124e-02 6.671941943699999378e-02 6.551473337499999494e-02 1.087415434650000068e-01 3.469041986899999708e-02 1.409513007690000042e-01 3.613866378700000132e-02 -3.681750458579999830e-01 -2.233186051799999905e-01 1.846446902349999919e-01 -4.836941571299999826e-02 9.778584028799999772e-02 2.853411645289999909e-01 3.884294794399999889e-02 -8.408101083000000392e-03 1.803372273690000138e-01 -1.460684024489999899e-01 1.397646110430000033e-01 1.644750107709999909e-01 -3.660437136900000082e-02 1.052174201180000046e-01 -7.959554839099999834e-02 1.916278418329999955e-01 2.776544087999999882e-02 2.490094693000000081e-02 -2.297039061600000126e-02 8.848679415799999559e-02 8.208746512999999523e-03 -8.463815097700000400e-02 1.907632702799999871e-02 -2.706182945030000120e-01 -1.530789815080000060e-01
-3.029938769930000109e-01 -1.299367125310000037e-01 -5.778879437310000533e-01 -4.053196464709999947e-01 4.232645605059999760e-01 -1.707387140059999919e-01 4.493812435840000008e-01 2.123840121520000068e-01 -3.202903102400000285e-02 4.935390095799999793e-02 1.354413920300000067e-02 -5.107415446509999679e-01 -2.669932619600000057e-01 -7.334113049049999500e-01 6.294974650460000154e-01 4.585256308039999951e-01 3.195625764050000206e-01 -5.513619891100000198e-02 8.605899019200000111e-02 5.977221710869999871e-01 -7.349386603499999393e-02 6.852258713299999582e-02 -4.514518538630000188e-01 5.341932973459999623e-01 -1.808473870930999983e+00 3.106793022089999745e-01 -8.783863147949999561e-01 2.613328040430000221e-01 3.111849095579999891e-01 -2.479299828460000132e-01 2.708670596030000044e-01 -1.204420144476000099e+00 3.380674938480000002e-01 -5.011364400900000238e-01 2.107323419047999913e+00 1.427248664599999883e-01 -2.595833200250000083e-01 -7.639211527179999850e-01 1.724122990362999985e+00 -3.063447634259999774e-01 -1.175878478375999903e+00 -2.159917774010000069e-01 4.095422790239999777e-01 8.470123151630000180e-01 1.222481077727999965e+00 4.836267095099999747e-02 7.003582029880000004e-01 -1.183000092819999960e+00 -1.880713930169999881e-01 -7.438255231789999700e-01 -1.437536125099999895e-01 4.411581398109999941e-01 -1.293250301140000114e-01 2.808837092939999724e-01 9.108293264000000278e-02 1.111533026810000019e-01 4.772990955249999945e-01 5.048777184900000298e-02 -3.909845255330000047e-01 1.327033755406000104e+00 -7.126547753699999377e-02 2.963911111540000198e-01 -3.707604917349999751e-01 -2.858101689449999983e-01 -2.657260478410000126e-01 1.450063949859999868e-01 3.579114178009999980e-01 -1.293345291499999918e-02 8.830765068270000073e-01 -9.447641752419999595e-01 6.980473794399999488e-02 1.786328943709999950e-01 -1.488017953620000000e-01 -2.434223797400000000e-01 2.929629585300000047e-02 -1.399120658540000117e-01 6.999105929129999515e-01 -1.485253644933000050e+00 -1.800361669559999989e-01 2.633225185060000251e-01 -4.217984955810000214e-01 6.487372029239999449e-01 -2.746881177491999892e+00 2.410203917069999868e-01 3.179765359299999844e-02 9.963292179799999870e-02 -2.224937361290000026e-01 1.444323890973999935e+00 1.416835070290000109e-01 3.618863497179999889e-01 4.582468269969999786e-01 7.563589812440000282e-01 -2.850581060190000016e-01 6.530464740939999624e-01 3.828800671129999889e-01 -1.858629063316999952e+00 -1.154023985151999998e+00 7.104918724640000294e-01 -1.370794173079999956e-01 5.255863829500000417e-01 7.992618395589999869e-01 2.135692638599999971e-01 3.999182164699999903e-02 1.154584427742999964e+00 7.902512377539999688e-01 -2.524589988020000120e-01 4.530942261929999937e-01 -1.947053896679999951e-01 4.265168179130000015e-01 -8.288068992010000358e-01 5.542468811909999626e-01 1.774064300100000047e-01 -8.093769774400000339e-02 1.201446631540000060e-01 -3.306509901749999925e-01 -4.494517047500000140e-01 -2.401708847659999868e-01 9.839946743999999912e-02 -1.430291629280999954e+00 -8.883963222540000038e-01
-3.595013876090000227e-01 1.303049707700000039e-02 -7.167297197090000127e-01 -5.784970921909999841e-01 4.641803930549999735e-01 -4.246309769209999918e-01 6.757484059130000054e-01 -7.129713389500000331e-02 7.514373248700000063e-02 -4.669104925599999734e-02 2.818268257109999841e-01 -4.275550045870000204e-01 -5.286225538419999648e-01 -9.781612145910000278e-01 7.038483582819999862e-01 6.273551583369999518e-01 3.792764088639999920e-01 -1.464372568510000083e-01 3.760617711900000049e-01 7.889956199490000266e-01 -1.352066628880000121e-01 -7.127240991399999559e-02 -2.914910696379999777e-01 6.240331426190000030e-01 -1.821971335366999956e+00 3.174192485189999968e-01 -6.246149001109999599e-01 9.302444133999999976e-02 2.365868132285999792e+00 -9.008647827279999687e-01 7.220610826250000169e-01 -1.380536326289000026e+00 2.186887189070000070e-01 -9.858602178090000168e-01 9.991129515150000140e-01 4.266930050639999861e-01 5.785725755900000128e-02 2.804557640270000096e-01 1.419307630022000000e+00 -7.197987187480000548e-01 -1.252314096892999995e+00 -5.235844263500000206e-02 6.760322897739999837e-01 6.242667691199999674e-02 1.380149013360000065e+00 -7.108040882000000310e-03 8.423761737120000204e-01 -1.302584394156999892e+00 -2.735208596950000071e-01 -1.209904566887000099e+00 7.056728822219999753e-01 1.161612107867999955e+00 -1.522913940929999932e-01 2.361352682919999890e-01 3.631451570299999709e-02 3.006791864200000219e-01 5.727517525619999494e-01 7.950429659999999274e-03 -8.211898487009999803e-01 6.639755931330000305e-01 -6.563015197949999546e-01 1.631835654990000106e-01 -3.559305967870000087e-01 -3.578847616160000245e-01 -2.347719465083999868e+00 1.263373531729999888e-01 4.409265441160000187e-01 -1.659088915299999911e-01 3.277024128620000254e-01 -1.082757707707999950e+00 3.472717969700000323e-02 9.395027056499999363e-02 -2.068639292230000093e-01 -7.004972493159999924e-01 -2.191704235999999972e-02 -2.662091129759999730e-01 7.565988051459999753e-01 -9.595957521360000131e-01 -4.598800737900000241e-02 9.989407857099999455e-02 -4.275547315939999815e-01 1.118317513398999985e+00 -7.713641138879999692e-01 5.233527657519999599e-01 6.918021373900000437e-02 2.155344595729999924e-01 -8.057048848500000249e-01 4.446625807749999826e-01 1.598329112029999999e-01 5.644380114770000123e-01 8.298877093430000462e-01 1.811837605140000085e-01 -6.120366696869999901e-01 1.060158302485000092e+00 2.721248689060000170e-01 -1.037901331512000036e+00 -9.080011012269999515e-01 7.013629453080000298e-01 -2.206902475099999927e-01 5.771502942280000159e-01 7.200027202900000090e-02 3.127474385369999887e-01 1.781285571199999959e-02 1.440118123913000092e+00 7.513240439149999617e-01 -3.297983522369999920e-01 4.878020386440000133e-01 -3.460464670219999817e-01 6.734681450539999892e-01 -4.753419745069999980e-01 4.773533847190000179e-01 1.506405796109999973e-01 -3.972190518600000192e-02 5.306918501099999741e-01 -7.336134608490000319e-01 -6.848812346760000391e-01 -2.225440013340000134e-01 1.640394198900000100e-01 -3.373904018769999791e-01 -9.933927626809999634e-01
-1.863174243450000100e-01 1.499539126209999962e-01 -6.645327994220000534e-01 -5.978467010650000413e-01 4.324193839800000161e-01 -5.748587962290000464e-01 9.128951683299999509e-01 -4.983902671150000074e-01 1.683729411890000083e-01 -4.015463310769999961e-01 7.114801050460000109e-01 -2.678111306400000058e-01 -7.320128822970000115e-01 -9.543293410080000427e-01 5.710197391400000377e-01 5.731824210670000141e-01 3.663321708260000031e-01 -1.714575474570000091e-01 6.997464272319999790e-01 7.822546349400000265e-01 -1.565493086699999981e-01 -1.950974187539999960e-01 6.385545812699999768e-02 5.573381704269999570e-01 -1.133304978861999990e+00 -2.790955396599999888e-02 3.940292720899999934e-01 -3.814836627750000098e-01 9.821913666320000180e-01 -1.323600794189000007e+00 4.857432548419999829e-01 -9.462234659839999784e-01 -1.143975080750000012e-01 -9.937736093090000500e-01 2.866004394409999989e-01 8.010595685100000418e-01 7.370734978149999783e-01 1.686778648425000027e+00 6.982133167330000223e-01 -6.572904185929999699e-01 -5.542378401559999723e-01 4.724498743369999754e-01 7.058845952190000439e-01 -5.240591392169999807e-01 8.143089396289999726e-01 5.159198867559999790e-01 5.109658963190000236e-01 -1.094226211078999977e+00 -2.392666312220000091e-01 -1.290140583034999899e+00 5.979236772439999736e-01 8.118724989740000453e-01 -2.425576953799999866e-02 -1.419512563539999939e-01 5.441544920000000209e-03 7.851054986000000069e-02 3.627693121839999923e-01 -7.564682636099999413e-02 -1.074762958800000057e+00 -3.692229398569999987e-01 -7.801537811830000502e-01 1.611384540099999874e-02 -7.887872852100000221e-02 -3.147419445910000224e-01 -8.258741272540000011e-01 4.689626620840000037e-01 2.337998922199999996e-01 -4.565794148499999761e-01 -4.086805875589999970e-01 -4.112181274389999919e-01 -1.982154450789999911e-01 -1.499105667570000133e-01 -1.601004326109999876e-01 -7.521576360030000075e-01 -5.586584955900000121e-02 -3.732879638919999743e-01 1.877791383999999897e-01 2.029383739020000077e-01 1.725507611099999852e-02 -4.956709085000000070e-01 -9.672608859400000370e-02 1.141694946844000080e+00 1.197699086834999926e+00 6.285931444900000331e-01 5.884891888399999826e-02 4.514963652080000167e-01 -1.314050071270000064e+00 -9.209118629750000506e-01 1.950450826490000011e-01 5.448268485470000311e-01 8.915871512340000082e-01 -6.126272792019999969e-01 -7.771977599489999777e-01 1.073664642892000032e+00 -1.164280204779999939e-01 6.023104417560000146e-01 -3.362776919959999944e-01 4.164440691919999993e-01 -4.451929656559999726e-01 1.563706745460000103e-01 -8.725372257750000360e-01 3.748798418570000179e-01 -5.787879489299999763e-02 8.150337622690000394e-01 1.299163239410000004e-01 -7.906192096000000391e-02 1.360064184010000010e-01 -3.785701807529999741e-01 6.521035417070000229e-01 3.170711246560000141e-01 -4.102892442999999875e-03 -1.926329184070000033e-01 8.252836402799999804e-02 7.083441540589999752e-01 -5.630821394089999821e-01 -7.267373262559999603e-01 -7.485362593800000408e-02 1.098503234229999959e-01 1.084576478960000090e+00 -4.356189931480000110e-01
1.578020931319999987e-01 9.122726139600000062e-02 -5.599884896979999693e-01 -3.364725625860000013e-01 4.495126385139999736e-01 -6.814705294759999532e-01 1.241511410036000074e+00 -7.139683302310000368e-01 2.861468282040000033e-01 -9.408371274029999620e-01 1.196348887717000098e+00 -3.935641600540000229e-01 -6.102817490699999903e-01 -9.134451096119999836e-01 4.841941699280000178e-01 2.392973528600000066e-01 3.771203360250000025e-01 -2.371320264389999988e-01 9.116466364509999698e-01 6.319711559089999930e-01 -1.043633604310000018e-01 -3.655609389050000213e-01 3.244023752729999766e-01 4.390219183180000262e-01 -7.177339178580000034e-01 -6.134399398830000516e-01 8.316510494919999719e-01 -8.120287166240000021e-01 -4.217082573270000134e-01 -9.891639837090000498e-01 -1.674177617779999960e-01 -2.978213490509999950e-01 -5.451113460380000442e-01 -3.393259377530000176e-01 6.871931942440000496e-01 1.157508309570000060e+00 1.301649767525000057e+00 1.112966329910000107e+00 4.612844594200000287e-02 -1.368177914120000116e-01 2.971404414480000034e-01 9.801940630680000544e-01 4.223268518700000196e-01 5.774165914200000277e-02 -1.782101592110000021e-01 6.788574687799999730e-01 -3.160250021589999792e-01 -7.375727538930000327e-01 -1.823486428970000073e-01 -9.042397405430000479e-01 -5.128939137710000207e-01 -7.515621000179999456e-01 1.886685977130000136e-01 -5.602321715169999994e-01 -4.552555097100000059e-02 -6.561891407469999660e-01 -1.521496862799999981e-02 -1.477542618730000035e-01 -8.173926790679999499e-01 -5.723072180899999722e-02 -2.066659884660000113e-01 1.147906647509999989e-01 1.598971047380000066e-01 -1.910825667469999989e-01 1.105219183598000088e+00 5.932452199859999942e-01 -1.740793796519999881e-01 -5.693911437069999470e-01 -2.728202211569999980e-01 5.266155033120000217e-01 -6.011919573039999909e-01 -3.059777589400000108e-01 6.155898394999999648e-03 -2.724047595279999734e-01 3.438047456900000104e-02 -3.262694045630000206e-01 -5.083466936470000253e-01 7.240932121649999997e-01 8.692873504600000245e-02 -1.091810057251999977e+00 3.647361626719999861e-01 4.445226473769999798e-01 9.682218889229999848e-01 4.856296006010000221e-01 -2.105856812630000074e-01 8.880138730809999936e-01 -6.645649710069999605e-01 -3.541523024259999874e-01 2.354639894090000130e-01 3.736525627489999946e-01 4.412917329520000265e-01 -2.113466054010000039e-01 -6.646113130049999818e-01 7.611605828209999647e-01 -3.193329089460000270e-01 8.940182957279999565e-01 1.948547958619999965e-01 6.769017729600000643e-02 -6.402789653829999983e-01 -3.814178429739999987e-01 -2.625136984779999905e-01 4.702951845319999769e-01 -8.204853649700000195e-02 -3.290586163020000066e-01 -2.666595405180000045e-01 2.668954592309999985e-01 -4.053962868620000215e-01 -1.716320037719999969e-01 4.487817747499999732e-01 5.955351929779999498e-01 -5.388492611070000438e-01 -5.937713773289999830e-01 2.043392862010000033e-01 2.755026496640000100e-01 -4.791216552900000314e-02 -5.092512542270000164e-01 7.482950662800000319e-02 -8.646405803999999626e-03 1.140706396744999962e+00 4.224178610070000173e-01
3.737118696319999822e-01 -7.980842524400000304e-02 -4.210491734669999930e-01 4.010059097600000150e-02 5.453829631380000542e-01 -8.389546655370000439e-01 1.509231592289000057e+00 -6.455376976209999951e-01 4.225727096599999899e-01 -1.396805059142999905e+00 1.691151558123000109e+00 -7.361682972319999463e-01 -2.198562137129999872e-01 -9.207631484930000054e-01 5.273618046810000237e-01 -1.190325465429999952e-01 3.968336398030000156e-01 -4.791086244269999739e-01 9.995052677869999957e-01 3.398475740849999926e-01 6.791191364399999653e-02 -5.257447365709999598e-01 3.544130911910000070e-01 3.330753282630000145e-01 -8.270422587000000186e-03 -1.204758666505000075e+00 6.624833956379999611e-01 -6.869215856979999923e-01 -5.980451240919999467e-01 -4.544335862960000028e-01 -7.540694087239999677e-01 2.562745711569999751e-01 -4.235503319089999885e-01 4.177207044089999988e-01 5.216887550709999877e-01 9.163410749910000375e-01 6.756665835080000182e-01 -4.823360772100000055e-02 -1.454863897932000105e+00 5.328718877660000297e-01 8.613260877780000158e-01 9.880574473519999623e-01 -1.486413210149999942e-01 1.260369662910000077e+00 -5.941062697390000480e-01 1.418825436960000075e-01 -8.712063266330000166e-01 1.117365520810000012e-01 -1.494777960720000132e-01 -2.440146046280000092e-01 -1.028097975627999983e+00 -1.669255016848999906e+00 3.011846829570000161e-01 -6.993181584050000010e-01 -1.562703215200000051e-01 -9.600038916540000189e-01 -3.338112545510000251e-01 -4.111593467779999789e-01 -2.116174157160000124e-01 4.320443557129999834e-01 9.707572924639999989e-01 3.275870575000000007e-01 1.485001120240000139e-01 -1.108361493599999970e-01 1.599261697808000093e+00 3.173681870050000242e-01 -5.060895791539999911e-01 -3.372454605629999769e-01 6.345800000739999502e-01 1.064507835451999895e+00 -8.751228428549999716e-01 -2.445442310400000041e-01 1.854024280859999929e-01 1.608413687459999963e-01 1.431684600329999890e-01 -7.565000989900000361e-02 -9.682204125919999793e-01 4.313675268020000231e-01 3.604552186100000166e-01 -1.083852134120999899e+00 6.167913125299999688e-01 -4.872514726930000095e-01 -1.568414290240000009e-01 1.081566406640000061e-01 -4.201357394749999918e-01 1.129415831730000042e+00 1.281082279627999920e+00 4.754660344519999748e-01 1.754751343239999983e-01 2.693912023169999781e-01 -2.208771235060000004e-01 7.043830297869999590e-01 -3.205901170530000011e-01 3.590562501499999781e-01 -2.795040846219999930e-01 -1.435073148000000007e-02 5.507869864000000115e-01 -2.075121844220000067e-01 -6.492145473920000187e-01 -6.238005438020000071e-01 7.012026961349999699e-01 5.374801822789999628e-01 -5.570319636499999894e-02 -1.290787662530999969e+00 -3.647634929110000201e-01 3.448875426379999776e-01 -8.408542924749999870e-01 2.441657129760000100e-01 1.098411734040000004e-01 1.945965697160000063e-01 -7.155130129929999638e-01 -6.804711372420000348e-01 3.109444833489999893e-01 -6.653914648359999795e-01 3.436594618330000017e-01 9.850922630899999755e-02 2.296601682880000106e-01 -2.919253684000000168e-02 -1.067602701019999961e-01 1.014533466180999932e+00
2.305964482800000048e-01 -1.698763160489999979e-01 -2.041319744200000008e-01 2.844962764830000213e-01 6.180671914359999741e-01 -1.020976853404000018e+00 1.629239411746000066e+00 -5.161854754929999789e-01 4.821956497980000034e-01 -1.559228037140999890e+00 2.003586017089999949e+00 -8.080674079670000509e-01 1.491786662510000139e-01 -9.677915729420000224e-01 5.659657547269999478e-01 -2.060377387629999946e-01 2.787845851490000082e-01 -7.408674432990000058e-01 9.335980862120000223e-01 -5.356402754100000191e-02 2.251792677339999882e-01 -5.077619230619999646e-01 1.957219606020000058e-01 2.180955102919999999e-01 5.395717345970000300e-01 -1.447570862460999974e+00 2.141010809710000018e-01 -7.449931166800000115e-02 -2.730339751120000047e-01 1.506502002369999871e-01 -1.026246935814000061e+00 4.333099236629999740e-01 1.872419969999999977e-03 1.027285553045000022e+00 -3.109386721660000186e-01 4.097110650149999866e-01 -4.158102576130000005e-01 -9.541762680599999435e-02 -2.259240718881000198e+00 1.065535507978000007e+00 8.179823721250000235e-01 4.241802906070000212e-01 -7.122181862830000432e-01 1.474194497810999982e+00 -1.065780154309999977e-01 -3.111701727119999816e-01 -6.596438867939999895e-01 3.267759273179999813e-01 8.790352407899999776e-02 4.402811809809999977e-01 -3.752772448180000109e-01 -3.444046565359999978e-01 1.953088673360000027e-01 -5.847524523399999508e-01 -2.790112779560000034e-01 -3.817646219529999829e-01 -3.926291525689999951e-01 -9.060019488060000459e-01 4.233132973320000159e-01 -7.630532086900000677e-02 1.604765372781000066e+00 2.484542826130000104e-01 1.142097978339999959e-01 -7.657334354200000248e-02 6.125150702020000226e-01 -9.813844790799999829e-02 -5.387526903760000430e-01 1.924244021900000101e-01 1.118335515479000009e+00 8.187053556569999779e-01 -6.789825517499999963e-01 -6.124031669599999672e-02 2.688625529690000238e-01 -2.313578802100000123e-02 2.279259065429999898e-01 2.003242588520000034e-01 -9.429496307800000476e-01 1.850664451129999943e-01 4.275112819179999746e-01 -3.888125708290000038e-01 5.228943981829999865e-01 -1.164285172165999915e+00 -6.756124844369999494e-01 -2.937317056459999853e-01 -3.195906307959999748e-01 8.798700715689999896e-01 2.167438942525000023e+00 -1.873461018079999874e-01 -5.828685021800000116e-02 2.791376013349999852e-01 -6.264404057600000408e-01 5.071008772489999927e-01 2.912615043300000039e-02 -1.331053033469999924e-01 -1.741683037029999881e-01 -3.228042266319999798e-01 6.363206062289999965e-01 -4.149698742929999740e-01 -5.431423082259999591e-01 -3.194464535429999974e-01 7.124976976650000404e-01 3.382228291880000071e-01 -8.029812405800000608e-02 -1.444098064083999988e+00 -5.071983714909999996e-01 1.548555649729999872e-01 -8.187181658519999683e-01 5.224511845389999687e-01 -3.311287734969999841e-01 -1.773081976700000006e-02 -3.512245414899999862e-01 -2.321303584749999926e-01 5.084843940929999473e-01 -1.115476585603000004e+00 3.371613076070000270e-01 9.475876605719999457e-01 4.097821550960000225e-01 -4.442370593400000317e-02 -9.762322086269999977e-01 9.284649947549999949e-01
-1.567898787160000029e-01 -1.364550664180000095e-01 2.541666526900000084e-02 4.943585503490000033e-01 5.374998926199999749e-01 -1.166406269002000062e+00 1.725130523525000070e+00 -4.572182410810000097e-01 4.163196951370000121e-01 -1.526565152032999917e+00 1.964195009575999906e+00 -3.053629716190000010e-01 2.074778700259999886e-01 -9.283525055129999703e-01 4.744637574439999894e-01 -5.850918875299999933e-02 -2.824784112299999830e-02 -7.375385186609999533e-01 6.755496338630000430e-01 -4.465560651959999960e-01 1.901663035589999939e-01 -2.532331177170000225e-01 -1.568868788299999928e-02 1.185409206690000022e-01 8.108571077730000187e-01 -7.468095364279999648e-01 -2.567343779340000021e-01 4.309574000599999954e-01 3.815795093220000211e-01 8.300187820259999905e-01 -9.123325925530000324e-01 -7.227056860199999877e-02 2.413225349720000135e-01 1.211498611534000069e+00 -1.100026241786000059e+00 2.834798995949999734e-01 -2.530070413800000195e-01 8.997376375719999819e-01 -5.865269519069999937e-01 1.014883418484999966e+00 8.719210070999999784e-02 -6.731986311380000476e-01 -6.806820166410000317e-01 -3.641311544699999958e-01 8.783889383349999802e-01 -7.830421383229999588e-01 2.637195338850000237e-01 -5.562975688219999881e-01 5.207960325529999990e-01 9.755591738879999530e-01 4.271788350460000161e-01 1.509795382355999971e+00 -6.060905228900000108e-02 -2.587687493029999786e-01 -2.695641627200000001e-01 2.496791715370000053e-01 -2.042454815770000098e-01 -1.092453102901999928e+00 7.087717368899999482e-01 -8.546862680479999641e-01 2.186501846729999865e-01 -8.615111693599999954e-02 3.946049003379999975e-01 4.170118271900000173e-02 -1.324984311362999989e+00 -5.134626873149999993e-01 -2.455179047050000118e-01 7.052170862350000125e-01 3.360016129239999927e-01 1.897666034099999843e-02 1.348665479900000054e-02 1.082692590830000023e-01 2.336362202539999933e-01 -3.962594286419999778e-01 2.818778167950000135e-01 3.536140034499999918e-01 -4.352638202840000137e-01 4.142934011250000159e-01 -2.044936567850000053e-01 5.533307272620000550e-01 3.299411200769999941e-01 -1.099516799539999923e+00 -3.368209190600000014e-01 -5.366211731850000222e-01 -2.712337024770000160e-01 1.299417864040000037e-01 -1.580260169419999972e-01 -1.022771234139999930e+00 -3.986828805290000277e-01 3.652341515559999752e-01 -6.340438533550000200e-01 -7.968164189459999713e-01 3.156896869979999853e-01 -4.450374877700000176e-01 -2.056072626700000128e-01 5.609043409099999655e-01 5.248350800540000360e-01 -5.659367406769999498e-01 -4.429991592929999888e-01 3.701415724680000019e-01 1.937622256650000097e-01 -6.718796151700000274e-02 -1.824752326480000020e-01 -6.231656707060000411e-01 -9.029977677749999598e-01 1.531545788700000056e-02 -2.887639875329999772e-01 4.461736284889999959e-01 -8.269835554640000419e-01 1.545774427309999921e-01 5.381190380339999635e-01 5.348630903229999456e-01 6.168121302939999495e-01 -2.487887239609999912e-01 1.745291218239999886e-01 1.456620217970000075e+00 5.388538514080000175e-01 -1.693152858939999950e-01 -7.686451922199999398e-02 -4.540986178800000134e-02
-4.895510004790000202e-01 -1.796651881999999922e-02 6.734624357799999517e-02 7.593074613460000233e-01 3.388632304309999732e-01 -1.160372101472999962e+00 1.859815237759000039e+00 -3.422591390199999917e-01 3.691195641259999993e-01 -1.514611302632999923e+00 1.709413454984999969e+00 3.645469882219999902e-01 1.850862039500000139e-02 -7.985123637350000081e-01 4.444593445930000164e-01 5.537101446900000168e-02 -3.567402934430000117e-01 -4.467739335440000237e-01 4.380944709610000154e-01 -5.757024566589999948e-01 2.538476849399999916e-02 -2.965737895299999996e-02 -2.781881938579999769e-01 1.834572829870000088e-01 9.655722245800000270e-01 4.710894771160000216e-01 -4.885082842139999992e-01 6.562577318719999830e-01 5.427958143009999903e-01 1.265068551309000089e+00 -2.934304872810000187e-01 -7.893006137479999795e-01 6.608412068310000054e-01 5.458501022489999910e-01 -9.435881732880000428e-01 -1.387548131590000122e-01 -3.115801153800000223e-01 1.535776669969000086e+00 3.339394093310000255e-01 1.484973984179999984e-01 -6.468493963500000499e-01 -1.445470095472999983e+00 -9.586662660899999966e-02 -1.688890680179000015e+00 1.716898923447000014e+00 -7.895491427059999623e-01 9.735023237169999621e-01 -1.115172286339999985e+00 9.114770792840000135e-01 1.118719710728999894e+00 3.140238871489999806e-01 7.525297168519999857e-01 -3.486591634639999993e-01 9.501123772999999287e-03 -1.092874935019999966e-01 3.151672005489999928e-01 8.028684799799999661e-02 -5.435990922610000053e-01 5.387050801380000031e-01 -6.641880808450000284e-01 -1.132528890347999972e+00 -2.767119882349999838e-01 5.896662222209999582e-01 2.801922115850000172e-01 -2.084769246228999950e+00 -6.976150678510000258e-01 2.670033259849999840e-01 7.363624014890000069e-01 -6.435306288440000300e-01 -7.029875208989999624e-01 6.620486547270000299e-01 1.817882228980000070e-01 7.137997074099999839e-02 -2.884164879930000147e-01 1.621984737620000006e-01 3.490135134530000238e-01 1.165624241020000035e-01 3.710041669499999917e-01 -7.721977095390000212e-01 1.153397702067999964e+00 1.724940195799999909e-01 -3.124353808629999896e-01 -1.365338789140000120e-01 -4.757774292090000134e-01 -2.973014164850000252e-01 -7.772005133210000416e-01 -1.244262134076999926e+00 -2.102873072229999862e-01 -7.024559281450000192e-01 2.897436235970000107e-01 -4.379719554020000127e-01 -1.018601719919000059e+00 3.543787371500000116e-01 -3.699115911740000207e-01 -2.784985774240000267e-01 6.086773467210000454e-01 -6.580944642000000067e-03 -4.964498863999999845e-01 -2.275663825110000038e-01 9.392072050159999685e-01 -1.592351054979999903e-01 -4.620729913619999740e-01 -2.870362066770000276e-01 6.357664230230000157e-01 -8.770419000100000417e-01 -1.145295677910000004e-01 4.069597135219999995e-01 3.941394550599999769e-02 -1.009944561456999956e+00 -9.794155549300000152e-02 1.269259554165999893e+00 1.085498514470000009e+00 4.836530606180000080e-01 9.739911270590000392e-01 9.894202889400000034e-02 1.074255232759999901e+00 4.696032568649999850e-01 -3.716721360229999771e-01 2.904333058910000265e-01 -1.229986709402999923e+00