2.746063030042715347e+00 2.534925416022000277e+00 -6.428697474518346722e-01 2.534925416022000277e+00 -6.104016380830523225e+00 1.450435255182781047e+00 -6.428697474518346722e-01 1.450435255182781047e+00 -7.731422800456532407e+00
5.413272909099942076e+00 2.443228870398427066e+00 -9.765096038404381673e-01 2.443228870398427066e+00 3.238601223669856477e+00 1.341904817228911861e+00 -9.765096038404381673e-01 1.341904817228911861e+00 -2.582088327801649097e+00
7.188794177595728918e+00 2.144081003009480568e+00 -1.308196028615618234e+00 2.144081003009480568e+00 5.923087016202938315e+00 1.838843524794227191e+00 -1.308196028615618234e+00 1.838843524794227191e+00 -3.026688655370271430e+00
5.795803787288965836e+00 1.801968440340124156e+00 -1.592506216548352560e+00 1.801968440340124156e+00 9.927003894523879213e-01 1.850160462442911102e+00 -1.592506216548352560e+00 1.850160462442911102e+00 -7.735991992946450679e+00
6.718095893701345744e+00 1.122950259883754853e+00 -1.851628546344334048e+00 1.122950259883754853e+00 -2.551149527744849710e+00 1.737968160561121023e+00 -1.851628546344334048e+00 1.737968160561121023e+00 -9.339076660822946963e+00
1.011857626905846708e+01 5.582459492397204848e-01 -1.765079402712233181e+00 5.582459492397204848e-01 -1.610858894801643348e+00 1.697563853617848340e+00 -1.765079402712233181e+00 1.697563853617848340e+00 -6.741667290936450563e+00
9.930169729076087748e+00 8.757139638446203023e-01 -1.496893016392587095e+00 8.757139638446203023e-01 -1.219923866755684871e+00 1.796964278246930835e+00 -1.496893016392587095e+00 1.796964278246930835e+00 -5.200126360434631501e+00
5.548128662054241822e+00 1.965847929946002770e+00 -1.435316295042187384e+00 1.965847929946002770e+00 -4.256825257619432534e+00 2.515620749225815800e+00 -1.435316295042187384e+00 2.515620749225815800e+00 -8.407755509408907812e+00
1.688281195230072029e+00 3.016521873348718685e+00 -1.715866047851109188e+00 3.016521873348718685e+00 -7.082159676986696795e+00 3.563161748491017189e+00 -1.715866047851109188e+00 3.563161748491017189e+00 -9.185169515127189044e+00
2.781184908559282576e+00 3.487370377596600513e+00 -1.338492051583899611e+00 3.487370377596600513e+00 -6.491996581765508090e+00 4.395586819331749773e+00 -1.338492051583899611e+00 4.395586819331749773e+00 -6.036825110145949580e+00
6.396780926048109883e+00 3.490901199069570193e+00 -4.093861902235894634e-01 3.490901199069570193e+00 -8.159562765172778676e-01 3.791363467467414150e+00 -4.093861902235894634e-01 3.791363467467414150e+00 -7.064813138234471435e-02
7.234798822862324563e+00 2.932392734808842771e+00 -3.795828393700094172e-01 2.932392734808842771e+00 -1.745175297579334428e-01 2.908646397626876823e+00 -3.795828393700094172e-01 2.908646397626876823e+00 -2.996428996412680235e+00
3.418392529444126193e+00 2.775546640865590220e+00 -1.139355387404515696e+00 2.775546640865590220e+00 -9.029125002976382319e+00 3.524487519968374283e+00 -1.139355387404515696e+00 3.524487519968374283e+00 -7.967439987930020173e+00
-3.951351899478372065e+00 2.697479138370940888e+00 -1.505132033399740443e+00 2.697479138370940888e+00 -1.520176522215279213e+01 3.480596167820927622e+00 -1.505132033399740443e+00 3.480596167820927622e+00 -1.136180051342573272e+01
-9.689167477197070610e+00 2.336492442347800402e+00 -1.678877468944141915e+00 2.336492442347800402e+00 -1.421512851923423604e+01 2.632443459507932459e+00 -1.678877468944141915e+00 2.632443459507932459e+00 -1.214859955468487662e+01
-1.433342601445511555e+01 1.917075908271616669e+00 -2.143085538501420473e+00 1.917075908271616669e+00 -1.206544676948215944e+01 2.448618200245649135e+00 -2.143085538501420473e+00 2.448618200245649135e+00 -1.221815102300173272e+01
-1.326612611315798063e+01 2.377133538613274588e+00 -1.432124322796138216e+00 2.377133538613274588e+00 -2.612679055188165567e+00 2.417031526028322830e+00 -1.432124322796138216e+00 2.417031526028322830e+00 -4.360266205080839619e+00
-6.095185703160352020e+00 2.382637300271428504e+00 1.800419615728211797e-01 2.382637300271428504e+00 8.067552224222000135e+00 8.510644970608010063e-01 1.800419615728211797e-01 8.510644970608010063e-01 7.804569386284065935e+00
2.767681031073802700e+00 1.710607888336116433e+00 1.544785305358734595e+00 1.710607888336116433e+00 1.115285039632754582e+01 -4.483104514148184006e-01 1.544785305358734595e+00 -4.483104514148184006e-01 5.780371130191078066e+00
-2.552202549864871717e+00 1.699499288990617751e+00 8.131773574099112611e-01 1.699499288990617751e+00 5.570280476585008245e+00 3.058597218160956643e-01 8.131773574099112611e-01 3.058597218160956643e-01 -6.361435785017749645e+00
1.893803298848157346e-01 2.763419207110011211e+00 -1.375120683276694677e+00 2.763419207110011211e+00 5.670524295044119256e-01 1.822115106174938826e-01 -1.375120683276694677e+00 1.822115106174938826e-01 -6.480762220570976062e+00
1.526747843028465645e+01 3.368942855618296761e+00 -3.361772719511213925e+00 3.368942855618296761e+00 3.395055490506481366e+00 -2.173376714201677162e-01 -3.361772719511213925e+00 -2.173376714201677162e-01 -5.087577113942873375e+00
2.349092003009024765e+01 -3.477272005530883392e-02 -4.870349007767007521e+00 -3.477272005530883392e-02 1.465753703592270440e+01 8.074494106380358804e-01 -4.870349007767007521e+00 8.074494106380358804e-01 -1.819336127131891967e-01
2.282410193812931709e+01 -3.139139779856973789e+00 -3.367698818373214831e+00 -3.139139779856973789e+00 1.776529315034385448e+01 1.333097200980334351e+00 -3.367698818373214831e+00 1.333097200980334351e+00 1.836018477916002256e+00
1.299819761688996955e+01 -1.767421167580745189e+00 -2.868732808813804880e+00 -1.767421167580745189e+00 1.111971475653466612e+01 -6.475509581364854439e-01 -2.868732808813804880e+00 -6.475509581364854439e-01 3.440935362975449330e+00
9.549396282953618309e-01 -8.739529844956079874e-01 -4.602204327303744513e+00 -8.739529844956079874e-01 6.324698843022565242e+00 2.451130946400185695e-01 -4.602204327303744513e+00 2.451130946400185695e-01 4.313302658541728007e+00
-5.919689896429479958e+00 -1.991327707389792812e+00 -4.865463875427111340e+00 -1.991327707389792812e+00 -6.227979877583921242e-01 3.192259339700032061e+00 -4.865463875427111340e+00 3.192259339700032061e+00 -2.401809265418435313e+00
-1.392016992854081181e+01 -6.768271054507283280e-01 -5.674607105288903774e+00 -6.768271054507283280e-01 -3.736640774353754857e+00 2.844839367803670971e+00 -5.674607105288903774e+00 2.844839367803670971e+00 -6.635136207919307694e+00
-2.338369480453793159e+01 1.312600780520246868e+00 -4.571644194992028787e+00 1.312600780520246868e+00 -6.554384891014048087e+00 2.654257439666225515e+00 -4.571644194992028787e+00 2.654257439666225515e+00 -1.936436370050104827e+01
-2.477429209829099221e+01 2.416914555172962054e+00 -3.687334841799015273e+00 2.416914555172962054e+00 -1.474085273495324877e+01 2.713422548241617882e+00 -3.687334841799015273e+00 2.713422548241617882e+00 -2.731186889374964011e+01
-2.485713881720439389e+01 2.961108772382982313e+00 -2.549107607562859368e+00 2.961108772382982313e+00 -1.731817940937546751e+01 2.029870805966545344e+00 -2.549107607562859368e+00 2.029870805966545344e+00 -3.317935974568654700e+01
-2.591185229057924744e+01 4.274758223070413088e+00 -1.473539064212026739e+00 4.274758223070413088e+00 -2.588522489608101651e+01 1.271509223065706129e+00 -1.473539064212026739e+00 1.271509223065706129e+00 -3.393480231169395722e+01
-2.007579535273486115e+01 5.258719519643677565e+00 -3.834474061152338270e-02 5.258719519643677565e+00 -3.019898770945856725e+01 1.608603287943432658e+00 -3.834474061152338270e-02 1.608603287943432658e+00 -2.970924744754126579e+01
-2.146918864441265384e+01 4.282263029733234916e+00 2.263486076867286645e+00 4.282263029733234916e+00 -3.309700813825660504e+01 6.204951389871529166e-01 2.263486076867286645e+00 6.204951389871529166e-01 -2.351513943728505751e+01
-2.107344826472085941e+01 4.355457367485044529e+00 3.423062989397612998e+00 4.355457367485044529e+00 -3.421772210047323881e+01 3.226054034291078731e-01 3.423062989397612998e+00 3.226054034291078731e-01 -1.817297045416123424e+01
-1.818353171643039090e+01 3.335472511867459300e+00 1.450113734913567098e+00 3.335472511867459300e+00 -2.800969628370478404e+01 1.648795813531706844e-01 1.450113734913567098e+00 1.648795813531706844e-01 -1.460640853739723788e+01
-1.861292177591473873e+01 1.863575051978745012e-01 -8.579472440358044683e-01 1.863575051978745012e-01 -1.809355584678906936e+01 1.151164534137986584e+00 -8.579472440358044683e-01 1.151164534137986584e+00 -1.661339870974779487e+01
-1.830718183929820242e+01 4.789487213405247967e-01 -2.192308188917242884e+00 4.789487213405247967e-01 -1.167698181474667152e+01 1.792554182787070571e+00 -2.192308188917242884e+00 1.792554182787070571e+00 -2.074326202637762862e+01
-1.556150597593921958e+01 1.945123686480252800e+00 -4.519244394965459932e+00 1.945123686480252800e+00 -6.860040966893840242e+00 1.258340358455505070e+00 -4.519244394965459932e+00 1.258340358455505070e+00 -1.760177269376981002e+01
-1.050131344453453330e+01 1.642216281819718349e+00 -5.875616783058861259e+00 1.642216281819718349e+00 -2.891643138735395357e+00 1.876486330993923701e+00 -5.875616783058861259e+00 1.876486330993923701e+00 -9.582405270623368665e+00
2.205085973004788702e+00 1.303110644538676421e+00 -5.596240171608211966e+00 1.303110644538676421e+00 4.030820402171192640e+00 2.771606453427272854e+00 -5.596240171608211966e+00 2.771606453427272854e+00 2.522292130119636530e-02
1.071733075061839280e+01 8.649478696177754777e-01 -4.629204040995356984e+00 8.649478696177754777e-01 9.960912017097529159e+00 3.055849910205838071e+00 -4.629204040995356984e+00 3.055849910205838071e+00 1.039253539366802492e+01
1.665297804375148516e+01 1.537447836058384032e-01 -3.722957488247570002e+00 1.537447836058384032e-01 1.251602080647374393e+01 2.854736027161671519e+00 -3.722957488247570002e+00 2.854736027161671519e+00 2.047435609586099048e+01
2.580887306707288076e+01 2.584376398130113217e-01 -2.716496467703127582e+00 2.584376398130113217e-01 1.544743738323260551e+01 2.308703724092785237e+00 -2.716496467703127582e+00 2.308703724092785237e+00 2.028293496173191812e+01
2.615064601830373903e+01 9.193597916740859910e-01 -1.736011373364016341e+00 9.193597916740859910e-01 1.888830405822352532e+01 2.165819120018347199e+00 -1.736011373364016341e+00 2.165819120018347199e+00 1.696711744313984127e+01
2.785847925267480463e+01 2.498453181465983608e+00 -1.625063829845393881e+00 2.498453181465983608e+00 1.920561286538569234e+01 1.663434409846335171e+00 -1.625063829845393881e+00 1.663434409846335171e+00 1.415670651477265984e+01
2.747495210917350761e+01 4.263603634719669522e+00 -1.638255614703246543e+00 4.263603634719669522e+00 1.558184184995348076e+01 1.027155271538032100e+00 -1.638255614703246543e+00 1.027155271538032100e+00 1.261565927819959398e+01
2.104391257928911685e+01 4.812107215425177387e+00 -1.475380664030174538e+00 4.812107215425177387e+00 1.304646798782960815e+01 7.947721172576507342e-01 -1.475380664030174538e+00 7.947721172576507342e-01 1.257441696123608565e+01
1.964882498917589615e+01 4.546810367304984446e+00 -1.528371452905822991e+00 4.546810367304984446e+00 1.259150186254678516e+01 6.356446664022062931e-01 -1.528371452905822991e+00 6.356446664022062931e-01 9.745869767123901184e+00
1.677045348188457297e+01 4.433896640140871703e+00 -2.408395374044560722e+00 4.433896640140871703e+00 1.041937426285316803e+01 7.855784066061722859e-01 -2.408395374044560722e+00 7.855784066061722859e-01 6.088823493695052491e+00
1.001639435193251337e+01 3.402348450561032411e+00 -2.472586353213405808e+00 3.402348450561032411e+00 2.194040738501065402e+00 2.047222184777613752e+00 -2.472586353213405808e+00 2.047222184777613752e+00 2.066090190553081296e+00
4.677730097983490154e+00 2.065507323044882604e+00 -1.675184449406993625e+00 2.065507323044882604e+00 -5.603798566411768434e+00 3.071051001192469432e+00 -1.675184449406993625e+00 3.071051001192469432e+00 -1.367934223030638163e+00
5.727208053304310376e+00 2.815890578631200736e+00 -8.700965134509465182e-01 2.815890578631200736e+00 -9.520126442348225027e+00 3.071509282539769181e+00 -8.700965134509465182e-01 3.071509282539769181e+00 -3.190208382787285579e+00
-2.285252251470130669e-01 4.861834488863714832e+00 -1.450285913804542748e+00 4.861834488863714832e+00 -1.099485881537400012e+01 3.322242544849154822e+00 -1.450285913804542748e+00 3.322242544849154822e+00 -8.029559494178652557e+00
-7.441416429605565597e+00 5.123184568943516481e+00 -2.256307713563137085e+00 5.123184568943516481e+00 -1.466867806544438757e+01 3.402743881847347218e+00 -2.256307713563137085e+00 3.402743881847347218e+00 -1.506912387450031510e+01
-1.093146197336381498e+01 4.326070858667979024e+00 -2.168946536094305877e+00 4.326070858667979024e+00 -1.617476113261221826e+01 3.174315289602312351e+00 -2.168946536094305877e+00 3.174315289602312351e+00 -1.646813646075569437e+01
-1.101635087378807043e+01 3.589273967162943002e+00 -1.388282111787806583e+00 3.589273967162943002e+00 -1.512195056352998890e+01 3.377317515742667364e+00 -1.388282111787806583e+00 3.377317515742667364e+00 -1.273214224879729706e+01
-8.726347777003338635e+00 2.792710002491487042e+00 -2.307760627143859433e-01 2.792710002491487042e+00 -1.387865970938316806e+01 3.527949241061356211e+00 -2.307760627143859433e-01 3.527949241061356211e+00 -1.304479183398325404e+01
-1.021456496538210423e+01 2.653264159556160795e+00 -5.832044554060175079e-01 2.653264159556160795e+00 -1.143035587777475115e+01 2.905485589167263516e+00 -5.832044554060175079e-01 2.905485589167263516e+00 -1.252310695238467808e+01
-1.037555504719365551e+01 2.912399604499478212e+00 -1.594954492362866016e+00 2.912399604499478212e+00 -1.023797854422335973e+01 2.420628813276472613e+00 -1.594954492362866016e+00 2.420628813276472613e+00 -1.038945073689054510e+01
-8.893043991493165379e+00 2.841016230150795074e+00 -2.107278551377581355e+00 2.841016230150795074e+00 -8.684735503677030621e+00 2.552917407162717645e+00 -2.107278551377581355e+00 2.552917407162717645e+00 -1.067959251751473282e+01
-9.645525122574911236e+00 2.455062853066332096e+00 -2.131390453849730360e+00 2.455062853066332096e+00 -6.541191890832962486e+00 2.466050630230751217e+00 -2.131390453849730360e+00 2.466050630230751217e+00 -1.198916209289073365e+01
-8.456144593898647699e+00 3.049016623508967960e+00 -1.926540381914545463e+00 3.049016623508967960e+00 -4.354310125512959040e+00 1.960986624821105861e+00 -1.926540381914545463e+00 1.960986624821105861e+00 -9.657588740132309724e+00
-1.039203423608377896e+01 3.984482670224392287e+00 -2.131011646362332979e+00 3.984482670224392287e+00 -9.939091043127470826e+00 1.597117173092022169e+00 -2.131011646362332979e+00 1.597117173092022169e+00 -6.881774142926981419e+00
-9.527346606591686751e+00 3.901561426162825530e+00 -2.512191287284345709e+00 3.901561426162825530e+00 -1.582108327833184092e+01 1.938457015239687387e+00 -2.512191287284345709e+00 1.938457015239687387e+00 -9.886033020448151021e+00
-6.452322212155081615e+00 3.417480381105656217e+00 -2.172697573997285136e+00 3.417480381105656217e+00 -1.232591467833562682e+01 2.327778299383536975e+00 -2.172697573997285136e+00 2.327778299383536975e+00 -1.183286003046582202e+01
6.330171345018500428e-01 3.809743164212784361e+00 -2.217425674199044572e+00 3.809743164212784361e+00 -5.144487356433645076e+00 2.233095942734913741e+00 -2.217425674199044572e+00 2.233095942734913741e+00 -1.032072589201940183e+01
1.336136491030559270e+01 4.175197607129410571e+00 -2.807261477127278138e+00 4.175197607129410571e+00 3.126248002608429388e+00 7.025823547422431758e-01 -2.807261477127278138e+00 7.025823547422431758e-01 -1.073534156640596482e+00
1.447955004144730040e+01 3.050544016235709144e+00 -1.960483242074554155e+00 3.050544016235709144e+00 5.032154643669758620e+00 -3.799583916509368525e-02 -1.960483242074554155e+00 -3.799583916509368525e-02 9.033198937945043028e+00
1.431004611652858571e+01 2.201073718619556363e+00 -6.285266125327696463e-01 2.201073718619556363e+00 2.280679557318787687e+00 2.271429011302639189e+00 -6.285266125327696463e-01 2.271429011302639189e+00 1.204161014989233358e+01
1.323295378574970904e+01 1.655063403145390577e+00 -2.581479836796420013e+00 1.655063403145390577e+00 6.288125693599249111e-01 2.969479532038843850e+00 -2.581479836796420013e+00 2.969479532038843850e+00 8.109778955894205055e+00
9.199415162261622925e+00 1.642699588129517441e+00 -2.850055534084148690e+00 1.642699588129517441e+00 -1.363467125333240437e+00 2.746279124908107772e+00 -2.850055534084148690e+00 2.746279124908107772e+00 6.783103130718411755e+00
1.291750814806029979e+01 1.067295141855470364e+00 -2.466990005316391787e+00 1.067295141855470364e+00 -3.695070632495362162e+00 3.831197795861839506e+00 -2.466990005316391787e+00 3.831197795861839506e+00 5.204895050823472147e+00
2.203672474070746645e+01 1.296523289029996695e+00 -3.857257357391115971e+00 1.296523289029996695e+00 -3.578443689123142146e+00 3.287555812323119220e+00 -3.857257357391115971e+00 3.287555812323119220e+00 7.402060878539425737e+00
2.651031297661653596e+01 2.517878519614821453e+00 -4.161583789715270321e+00 2.517878519614821453e+00 -4.800351363022608453e+00 9.784589034340765989e-01 -4.161583789715270321e+00 9.784589034340765989e-01 6.247478806524147998e+00
1.639268124474402200e+01 3.743889174901855910e+00 -2.046078474569620997e+00 3.743889174901855910e+00 -8.768207823362143216e+00 1.707687466821710354e+00 -2.046078474569620997e+00 1.707687466821710354e+00 3.882181136160862245e+00
1.056859480386788697e+01 3.948356183777113060e+00 -1.535017573587024620e+00 3.948356183777113060e+00 -6.251124529475363012e+00 1.182812656025886033e+00 -1.535017573587024620e+00 1.182812656025886033e+00 -4.734622108431034704e+00
5.002111875055447188e-01 2.920070481557468955e+00 -1.416116236074606016e+00 2.920070481557468955e+00 -2.788488344565214216e+00 1.079850033827020717e+00 -1.416116236074606016e+00 1.079850033827020717e+00 -3.939061820350767462e+00
-1.473796013297597796e+00 3.696212869025728764e+00 8.325202936221494723e-03 3.696212869025728764e+00 -6.077037269633040140e+00 3.337861212235011532e+00 8.325202936221494723e-03 3.337861212235011532e+00 2.070428729476744056e+00
-2.002756646111121808e-01 2.849493631899471247e+00 6.018441629640507440e-01 2.849493631899471247e+00 -1.223487153748083145e+01 3.049490282331970725e+00 6.018441629640507440e-01 3.049490282331970725e+00 -1.306267516631844394e+01
6.606857843095022886e+00 1.400017218013902109e+00 7.572035665678695793e-01 1.400017218013902109e+00 -1.414562717036662853e+01 1.519645472311864420e+00 7.572035665678695793e-01 1.519645472311864420e+00 -1.532784149459448209e+01
3.232371774075606385e+00 1.393595768134304524e+00 -9.456456648450708435e-01 1.393595768134304524e+00 -2.295943086258291288e+01 2.267502895460421719e+00 -9.456456648450708435e-01 2.267502895460421719e+00 -1.780659075867221475e+01
-1.166734468355799947e+01 7.425845184397297238e-01 -1.684573437943004848e+00 7.425845184397297238e-01 -2.708627229599944286e+01 3.056682541836958311e+00 -1.684573437943004848e+00 3.056682541836958311e+00 -2.047475310330811382e+01
-1.186840923173395268e+01 6.620098077109984325e-02 -4.646557999826088636e-01 6.620098077109984325e-02 -2.367235300635912054e+01 2.824724545866723613e+00 -4.646557999826088636e-01 2.824724545866723613e+00 -1.351482617328715641e+01
-9.666942029844486584e+00 1.054242540280062590e+00 -2.460662045809827725e-01 1.054242540280062590e+00 -1.620193710283719213e+01 3.691001726234572011e+00 -2.460662045809827725e-01 3.691001726234572011e+00 -1.440177786602954946e+01
-1.137016167235855946e+01 3.102201584142243451e+00 -9.775301568193841550e-01 3.102201584142243451e+00 -2.072506286131180531e+01 4.224196661088663873e+00 -9.775301568193841550e-01 4.224196661088663873e+00 -1.718115191606982606e+01
-7.244375152019491892e+00 3.517434404299434547e+00 -1.167701673795412898e+00 3.517434404299434547e+00 -1.969728386003190934e+01 4.477052438357756792e+00 -1.167701673795412898e+00 4.477052438357756792e+00 -1.980545944527215241e+01
-8.055016742640013661e+00 3.755554579306302987e+00 -2.227077269824234929e+00 3.755554579306302987e+00 -1.872963348757953028e+01 4.652982051613826719e+00 -2.227077269824234929e+00 4.652982051613826719e+00 -2.074113079811612081e+01
-8.738863813474294417e+00 3.816675046473911870e+00 -2.290301755180768062e+00 3.816675046473911870e+00 -1.770884306402341579e+01 4.698918622817071622e+00 -2.290301755180768062e+00 4.698918622817071622e+00 -2.082511448220251538e+01
-9.431544730054957526e+00 1.596284541238818244e+00 -1.970159482356937053e+00 1.596284541238818244e+00 -1.269190893635820316e+01 3.304228410401407690e+00 -1.970159482356937053e+00 3.304228410401407690e+00 -2.117975677232439224e+01
-8.599464276522613915e+00 -8.516054247507177655e-01 -1.899815540724985929e+00 -8.516054247507177655e-01 -3.880576341802802531e+00 2.133171655074603823e+00 -1.899815540724985929e+00 2.133171655074603823e+00 -1.827762503975651498e+01
3.662999116568301655e-02 -2.234823179537012372e+00 -2.438425157504958474e+00 -2.234823179537012372e+00 5.267960993034030537e+00 3.250104564388685890e+00 -2.438425157504958474e+00 3.250104564388685890e+00 -1.260590527868553501e+01
-5.930240679328916409e-01 -2.291903098247095372e+00 -2.178316560290709081e+00 -2.291903098247095372e+00 7.375379875834611187e-01 3.458440167312878177e+00 -2.178316560290709081e+00 3.458440167312878177e+00 -1.341892399351442045e+01
8.074696624425836688e+00 -7.301967251096774802e-01 -7.185714196897435846e-01 -7.301967251096774802e-01 -3.646283953541608280e+00 2.736537597330304994e+00 -7.185714196897435846e-01 2.736537597330304994e+00 -8.268674466799669887e+00
1.065998147188271261e+01 1.368773950131084938e+00 -9.935208672048756462e-02 1.368773950131084938e+00 -3.545647661743208889e+00 1.803069404534903164e+00 -9.935208672048756462e-02 1.803069404534903164e+00 -5.251617511078201517e-01
1.604672828440816090e+01 3.097467992896354883e+00 -4.173649228887158502e-01 3.097467992896354883e+00 -5.538540497797432849e-01 1.611360522459900579e+00 -4.173649228887158502e-01 1.611360522459900579e+00 8.510049005823189461e+00
1.395294019626531146e+01 4.140443174511658775e+00 -2.648379815299212181e-01 4.140443174511658775e+00 4.270713047523869044e+00 1.715553707876411593e+00 -2.648379815299212181e-01 1.715553707876411593e+00 1.412733072689515623e+01
1.011150709149867488e+01 4.620496440378023983e+00 -5.645599072757291337e-01 4.620496440378023983e+00 5.277946819600099815e+00 1.741979343292333171e+00 -5.645599072757291337e-01 1.741979343292333171e+00 6.881053013045361766e+00
1.159911972855569218e+01 4.182709909602677634e+00 -1.450797674479386012e+00 4.182709909602677634e+00 3.558214269174099442e+00 2.718972612764642083e+00 -1.450797674479386012e+00 2.718972612764642083e+00 4.119716198502095139e+00
1.386020292631525663e+01 3.703489056430981918e+00 -1.584717159702203393e+00 3.703489056430981918e+00 1.122706250681235973e+00 3.278348179870318013e+00 -1.584717159702203393e+00 3.278348179870318013e+00 3.996543936811411513e+00
1.583651241399029352e+01 4.134502375417214992e+00 -1.707435294131276704e+00 4.134502375417214992e+00 2.324918549661567191e+00 2.570973652548635968e+00 -1.707435294131276704e+00 2.570973652548635968e+00 1.330636845004928848e+00
1.296331856469122279e+01 5.083936581981523872e+00 -2.123675430529096797e+00 5.083936581981523872e+00 4.034193925618426713e-01 2.171072477964059999e+00 -2.123675430529096797e+00 2.171072477964059999e+00 -1.031206915695851878e+00
1.406138103449643673e+01 5.066072576706474706e+00 -1.878380428834373950e+00 5.066072576706474706e+00 -3.535648845650664285e+00 2.650266170157073109e+00 -1.878380428834373950e+00 2.650266170157073109e+00 -8.168758938209448595e-02
1.788049505069295364e+01 3.973862979597149181e+00 -1.554193526566248318e+00 3.973862979597149181e+00 -1.080869261541263615e+00 3.327750820209393723e+00 -1.554193526566248318e+00 3.327750820209393723e+00 2.486763481660533515e+00
1.480808848906426611e+01 3.098282679196116884e+00 -1.579329255675292698e+00 3.098282679196116884e+00 -2.820114311187569722e+00 3.490636032590974658e+00 -1.579329255675292698e+00 3.490636032590974658e+00 3.223752077015873851e+00
5.096306746976402735e+00 2.972116163276136369e+00 -8.039133295220182163e-01 2.972116163276136369e+00 -4.577563133124979977e+00 4.081084210512910815e+00 -8.039133295220182163e-01 4.081084210512910815e+00 1.800045295357390440e+00
-3.266668038818720810e+00 3.253680053571864406e+00 -4.343117330176038404e-01 3.253680053571864406e+00 -6.550560575234723792e+00 4.743761113612335656e+00 -4.343117330176038404e-01 4.743761113612335656e+00 -7.091346247504881628e-01
-9.424945756813043474e+00 3.154192531376388775e+00 -6.557792408478840818e-01 3.154192531376388775e+00 -1.022831154033698020e+01 4.518502042330517554e+00 -6.557792408478840818e-01 4.518502042330517554e+00 -2.317677416736905638e+00
-1.135548356060630226e+01 3.276755878571340652e+00 -1.077974317847096186e+00 3.276755878571340652e+00 -9.599371856386889945e+00 2.878952191041044717e+00 -1.077974317847096186e+00 2.878952191041044717e+00 -6.364339293509858386e+00
-1.090459784790358988e+01 3.171015064491284896e+00 -1.494084037096315321e+00 3.171015064491284896e+00 -7.620558775149310904e+00 1.336261377418537011e+00 -1.494084037096315321e+00 1.336261377418537011e+00 -1.243414443036403227e+01
-5.771999282178940760e+00 3.175681177028498059e+00 -2.059768439628517189e+00 3.175681177028498059e+00 -7.560436670483582366e-01 1.690499502696398038e+00 -2.059768439628517189e+00 1.690499502696398038e+00 -1.361017632289842716e+01
-4.201477531209499183e+00 3.409629107090407008e+00 -1.536965947489981055e+00 3.409629107090407008e+00 9.830212618193652219e-01 2.343279068639424256e+00 -1.536965947489981055e+00 2.343279068639424256e+00 -1.325750349588490273e+01
-2.478351945457577976e+00 2.781777467162425577e+00 -4.336814731266752099e-01 2.781777467162425577e+00 -5.122562862395620087e+00 2.524909556864040727e+00 -4.336814731266752099e-01 2.524909556864040727e+00 -1.355880210171771338e+01
-6.284974479517016377e+00 1.312625711535278183e+00 1.489425395854854783e-01 1.312625711535278183e+00 -1.137787870715290417e+01 2.326153106635452161e+00 1.489425395854854783e-01 2.326153106635452161e+00 -1.451147067866462237e+01
-8.159063257446735662e+00 6.851723649187131393e-01 6.660548549174271082e-01 6.851723649187131393e-01 -5.985951287136709986e+00 2.134279326277458644e+00 6.660548549174271082e-01 2.134279326277458644e+00 -1.208459000086237189e+01
-6.981595904409815034e+00 1.139201265010745479e+00 9.236361971896293044e-01 1.139201265010745479e+00 -5.617237229750181804e+00 1.704460850629627267e+00 9.236361971896293044e-01 1.704460850629627267e+00 -1.037740104975187627e+01
-4.585061361920649503e+00 1.837932869250246570e+00 7.531142343232982705e-01 1.837932869250246570e+00 -5.996706803557422027e+00 1.439082186283639597e+00 7.531142343232982705e-01 1.439082186283639597e+00 -8.067491178655034290e+00
-1.925734647357280949e+00 2.355735767319222074e+00 1.475189951020639878e+00 2.355735767319222074e+00 -4.456278405903019824e+00 1.394959585483565023e+00 1.475189951020639878e+00 1.394959585483565023e+00 -3.224207304644944205e+00
5.126196344816131401e+00 3.048740111861101720e+00 1.489602391956249994e+00 3.048740111861101720e+00 -2.831965933369996691e+00 1.647148328078672730e+00 1.489602391956249994e+00 1.647148328078672730e+00 3.508902055435257239e+00
5.333770794633793777e+00 3.039287606119657426e+00 -7.570852484028306462e-01 3.039287606119657426e+00 -4.421486079751780984e+00 2.711988884593206528e+00 -7.570852484028306462e-01 2.711988884593206528e+00 3.621675597552318049e+00
3.220401984886609004e+00 1.376784358609359993e+00 -2.972291389993602984e+00 1.376784358609359993e+00 -2.053438942178364091e+00 5.173699940222728166e+00 -2.972291389993602984e+00 5.173699940222728166e+00 -1.120404109581804308e-01
3.643916745437856264e+00 4.163421086867584164e-01 -3.717641248824536948e+00 4.163421086867584164e-01 5.928379420566043834e+00 7.938512234360882935e+00 -3.717641248824536948e+00 7.938512234360882935e+00 -2.259222197659461528e+00
2.719262805940059202e+00 5.911444072107379100e-01 -3.681260495292672186e+00 5.911444072107379100e-01 1.453815821891407012e+01 8.887345167341216268e+00 -3.681260495292672186e+00 8.887345167341216268e+00 -7.203843776231815266e-01
4.821137068798474701e+00 9.264233994006996209e-01 -2.984778694166863033e+00 9.264233994006996209e-01 1.936767214902086920e+01 7.369174862214571853e+00 -2.984778694166863033e+00 7.369174862214571853e+00 3.123469335700276517e+00
8.276757571689239867e+00 4.233077671054057411e+00 -8.669836995493485077e-01 4.233077671054057411e+00 1.153240050397314853e+01 3.879314646921281806e+00 -8.669836995493485077e-01 3.879314646921281806e+00 4.558144176520786850e+00
5.233351593573611460e+00 5.518507175528624131e+00 -4.301790240576868762e-01 5.518507175528624131e+00 -1.980482380942926390e+00 2.773126953447712317e+00 -4.301790240576868762e-01 2.773126953447712317e+00 -2.274940994063366251e+00
-6.200110974103119510e+00 4.436819688235664749e+00 -9.849420711972234344e-01 4.436819688235664749e+00 -1.444469678227751253e+01 2.964189508039984489e+00 -9.849420711972234344e-01 2.964189508039984489e+00 -1.257236095371735551e+01
-3.084212749551432875e+00 2.779611710072500408e+00 4.825862339910974574e-02 2.779611710072500408e+00 -1.022046658302834921e+01 4.236002405450755681e+00 4.825862339910974574e-02 4.236002405450755681e+00 -9.780614186031284518e+00
3.422724507864265409e+00 -2.107751621899331129e-01 2.328409362170868580e+00 -2.107751621899331129e-01 -8.382497998407529849e-01 4.253159882511354795e+00 2.328409362170868580e+00 4.253159882511354795e+00 4.202720611617847268e+00
3.014836915998675870e+00 -4.932085245491463765e-01 4.097291108045055807e+00 -4.932085245491463765e-01 -3.912342921936255102e+00 3.116545492990196120e+00 4.097291108045055807e+00 3.116545492990196120e+00 1.260485399419890484e+01
-5.275231581575544837e+00 1.243236925851619157e+00 3.193498609626833407e+00 1.243236925851619157e+00 -1.124221186328289512e+01 4.593674118972564280e+00 3.193498609626833407e+00 4.593674118972564280e+00 -2.334801276105008760e+00