7.951928220005562764e+00 -0.000000000000000000e+00 0.000000000000000000e+00 -0.000000000000000000e+00 7.952608589478151302e+00 0.000000000000000000e+00 0.000000000000000000e+00 0.000000000000000000e+00 7.952598584040745600e+00
7.953198296922617594e+00 -0.000000000000000000e+00 0.000000000000000000e+00 -0.000000000000000000e+00 7.953878775063580875e+00 0.000000000000000000e+00 0.000000000000000000e+00 0.000000000000000000e+00 7.953868768028184100e+00
7.957552301535656625e+00 -0.000000000000000000e+00 0.000000000000000000e+00 -0.000000000000000000e+00 7.958233152205474781e+00 0.000000000000000000e+00 0.000000000000000000e+00 0.000000000000000000e+00 7.958223139692109704e+00
7.964320166643786614e+00 -0.000000000000000000e+00 0.000000000000000000e+00 -0.000000000000000000e+00 7.965001596375271831e+00 0.000000000000000000e+00 0.000000000000000000e+00 0.000000000000000000e+00 7.964991575345955255e+00
7.971086429696138786e+00 -0.000000000000000000e+00 0.000000000000000000e+00 -0.000000000000000000e+00 7.971768438350291142e+00 0.000000000000000000e+00 0.000000000000000000e+00 0.000000000000000000e+00 7.971758408808025109e+00
7.976327969486257885e+00 -0.000000000000000000e+00 0.000000000000000000e+00 -0.000000000000000000e+00 7.977010426608828197e+00 0.000000000000000000e+00 0.000000000000000000e+00 0.000000000000000000e+00 7.977000390470599278e+00
7.979627644298335376e+00 -0.000000000000000000e+00 0.000000000000000000e+00 -0.000000000000000000e+00 7.980310383741281655e+00 0.000000000000000000e+00 0.000000000000000000e+00 0.000000000000000000e+00 7.980300343452077172e+00
7.981965892276675412e+00 -0.000000000000000000e+00 0.000000000000000000e+00 -0.000000000000000000e+00 7.982648831781470555e+00 0.000000000000000000e+00 0.000000000000000000e+00 0.000000000000000000e+00 7.982638788549282438e+00
7.984067270930507831e+00 -0.000000000000000000e+00 0.000000000000000000e+00 -0.000000000000000000e+00 7.984750390229266692e+00 0.000000000000000000e+00 0.000000000000000000e+00 0.000000000000000000e+00 7.984740344354094077e+00
7.986784594494774403e+00 -0.000000000000000000e+00 0.000000000000000000e+00 -0.000000000000000000e+00 7.987467946289195986e+00 0.000000000000000000e+00 0.000000000000000000e+00 0.000000000000000000e+00 7.987457896994042628e+00
7.991286667231489282e+00 -0.000000000000000000e+00 0.000000000000000000e+00 -0.000000000000000000e+00 7.991970404224692182e+00 0.000000000000000000e+00 0.000000000000000000e+00 0.000000000000000000e+00 7.991960349265572638e+00
7.997691813601536914e+00 -0.000000000000000000e+00 0.000000000000000000e+00 -0.000000000000000000e+00 7.998376098620586738e+00 0.000000000000000000e+00 0.000000000000000000e+00 0.000000000000000000e+00 7.998366035601511825e+00
8.005085167550166858e+00 -0.000000000000000000e+00 0.000000000000000000e+00 -0.000000000000000000e+00 8.005770085146574289e+00 0.000000000000000000e+00 0.000000000000000000e+00 0.000000000000000000e+00 8.005760012825552607e+00
8.011688505363364854e+00 -0.000000000000000000e+00 0.000000000000000000e+00 -0.000000000000000000e+00 8.012373987944519271e+00 0.000000000000000000e+00 0.000000000000000000e+00 0.000000000000000000e+00 8.012363907314547617e+00
8.016569801964150699e+00 -0.000000000000000000e+00 0.000000000000000000e+00 -0.000000000000000000e+00 8.017255702189903133e+00 0.000000000000000000e+00 0.000000000000000000e+00 0.000000000000000000e+00 8.017245615417964544e+00
8.021013714330653244e+00 -0.000000000000000000e+00 0.000000000000000000e+00 -0.000000000000000000e+00 8.021699994779217135e+00 0.000000000000000000e+00 0.000000000000000000e+00 0.000000000000000000e+00 8.021689902416310858e+00
8.026963319199936109e+00 -0.000000000000000000e+00 0.000000000000000000e+00 -0.000000000000000000e+00 8.027650108698567877e+00 0.000000000000000000e+00 0.000000000000000000e+00 0.000000000000000000e+00 8.027640008849706632e+00
8.033990207865048916e+00 -0.000000000000000000e+00 0.000000000000000000e+00 -0.000000000000000000e+00 8.034677598586220881e+00 0.000000000000000000e+00 0.000000000000000000e+00 0.000000000000000000e+00 8.034667489895408465e+00
8.040201574734551215e+00 -0.000000000000000000e+00 0.000000000000000000e+00 -0.000000000000000000e+00 8.040889496902664746e+00 0.000000000000000000e+00 0.000000000000000000e+00 0.000000000000000000e+00 8.040879380395896447e+00
8.045069074150758226e+00 -0.000000000000000000e+00 0.000000000000000000e+00 -0.000000000000000000e+00 8.045757412783473228e+00 0.000000000000000000e+00 0.000000000000000000e+00 0.000000000000000000e+00 8.045747290152743147e+00
8.046840504717870601e+00 -0.000000000000000000e+00 0.000000000000000000e+00 -0.000000000000000000e+00 8.047528994914713962e+00 0.000000000000000000e+00 0.000000000000000000e+00 0.000000000000000000e+00 8.047518870054995332e+00
8.046513394391816121e+00 -0.000000000000000000e+00 0.000000000000000000e+00 -0.000000000000000000e+00 8.047201856601819969e+00 0.000000000000000000e+00 0.000000000000000000e+00 0.000000000000000000e+00 8.047191732153100574e+00
8.046947825183101699e+00 -0.000000000000000000e+00 0.000000000000000000e+00 -0.000000000000000000e+00 8.047636324561892707e+00 0.000000000000000000e+00 0.000000000000000000e+00 0.000000000000000000e+00 8.047626199567174510e+00
8.050054927838683483e+00 -0.000000000000000000e+00 0.000000000000000000e+00 -0.000000000000000000e+00 8.050743693061942707e+00 0.000000000000000000e+00 0.000000000000000000e+00 0.000000000000000000e+00 8.050733564158248257e+00
8.054965430889350131e+00 -0.000000000000000000e+00 0.000000000000000000e+00 -0.000000000000000000e+00 8.055654616257191591e+00 0.000000000000000000e+00 0.000000000000000000e+00 0.000000000000000000e+00 8.055644481174532245e+00
8.059705744325677657e+00 -0.000000000000000000e+00 0.000000000000000000e+00 -0.000000000000000000e+00 8.060395335276183459e+00 0.000000000000000000e+00 0.000000000000000000e+00 0.000000000000000000e+00 8.060385194229558792e+00
8.064412826016297942e+00 -0.000000000000000000e+00 0.000000000000000000e+00 -0.000000000000000000e+00 8.065102819706485349e+00 0.000000000000000000e+00 0.000000000000000000e+00 0.000000000000000000e+00 8.065092672736895452e+00
8.069609935556171010e+00 -0.000000000000000000e+00 0.000000000000000000e+00 -0.000000000000000000e+00 8.070300373912798975e+00 0.000000000000000000e+00 0.000000000000000000e+00 0.000000000000000000e+00 8.070290220403245840e+00
8.077326467643487717e+00 -0.000000000000000000e+00 0.000000000000000000e+00 -0.000000000000000000e+00 8.078017566228316682e+00 0.000000000000000000e+00 0.000000000000000000e+00 0.000000000000000000e+00 8.078007403009818788e+00
8.086118195397656194e+00 -0.000000000000000000e+00 0.000000000000000000e+00 -0.000000000000000000e+00 8.086810046206153402e+00 0.000000000000000000e+00 0.000000000000000000e+00 0.000000000000000000e+00 8.086799871925720140e+00
8.094028354816394710e+00 -0.000000000000000000e+00 0.000000000000000000e+00 -0.000000000000000000e+00 8.094720882419998986e+00 0.000000000000000000e+00 0.000000000000000000e+00 0.000000000000000000e+00 8.094710698186622366e+00
8.101678028238572082e+00 -0.000000000000000000e+00 0.000000000000000000e+00 -0.000000000000000000e+00 8.102371210350407083e+00 0.000000000000000000e+00 0.000000000000000000e+00 0.000000000000000000e+00 8.102361016492086065e+00
8.108129093554296674e+00 -0.000000000000000000e+00 0.000000000000000000e+00 -0.000000000000000000e+00 8.108822827622955032e+00 0.000000000000000000e+00 0.000000000000000000e+00 0.000000000000000000e+00 8.108812625646681482e+00
8.110260121552459012e+00 -0.000000000000000000e+00 0.000000000000000000e+00 -0.000000000000000000e+00 8.110954037952065931e+00 0.000000000000000000e+00 0.000000000000000000e+00 0.000000000000000000e+00 8.110943833294808059e+00
8.106521904397762768e+00 -0.000000000000000000e+00 0.000000000000000000e+00 -0.000000000000000000e+00 8.107215500953211418e+00 0.000000000000000000e+00 0.000000000000000000e+00 0.000000000000000000e+00 8.107205300999924091e+00
8.097263988152116454e+00 -0.000000000000000000e+00 0.000000000000000000e+00 -0.000000000000000000e+00 8.097956792598123954e+00 0.000000000000000000e+00 0.000000000000000000e+00 0.000000000000000000e+00 8.097946604293772666e+00
8.084909453915535948e+00 -0.000000000000000000e+00 0.000000000000000000e+00 -0.000000000000000000e+00 8.085601201304628560e+00 0.000000000000000000e+00 0.000000000000000000e+00 0.000000000000000000e+00 8.085591028544186543e+00
8.071761385399776501e+00 -0.000000000000000000e+00 0.000000000000000000e+00 -0.000000000000000000e+00 8.072452007834346688e+00 0.000000000000000000e+00 0.000000000000000000e+00 0.000000000000000000e+00 8.072441851618808784e+00
8.057032114531896383e+00 -0.000000000000000000e+00 0.000000000000000000e+00 -0.000000000000000000e+00 8.057721476725719256e+00 0.000000000000000000e+00 0.000000000000000000e+00 0.000000000000000000e+00 8.057711339042073817e+00
8.040088014242240178e+00 -0.000000000000000000e+00 0.000000000000000000e+00 -0.000000000000000000e+00 8.040775926694408327e+00 0.000000000000000000e+00 0.000000000000000000e+00 0.000000000000000000e+00 8.040765810330640306e+00
8.021236737735863542e+00 -0.000000000000000000e+00 0.000000000000000000e+00 -0.000000000000000000e+00 8.021923037267317369e+00 0.000000000000000000e+00 0.000000000000000000e+00 0.000000000000000000e+00 8.021912944622412667e+00
8.002117955230332313e+00 -0.000000000000000000e+00 0.000000000000000000e+00 -0.000000000000000000e+00 8.002802618952202351e+00 0.000000000000000000e+00 0.000000000000000000e+00 0.000000000000000000e+00 8.002792550364160817e+00
7.984267882828724794e+00 -0.000000000000000000e+00 0.000000000000000000e+00 -0.000000000000000000e+00 7.984951019292386043e+00 0.000000000000000000e+00 0.000000000000000000e+00 0.000000000000000000e+00 7.984940973164214917e+00
7.967258742841456964e+00 -0.000000000000000000e+00 0.000000000000000000e+00 -0.000000000000000000e+00 7.967940423997495358e+00 0.000000000000000000e+00 0.000000000000000000e+00 0.000000000000000000e+00 7.967930399271200059e+00
7.951749591139804174e+00 -0.000000000000000000e+00 0.000000000000000000e+00 -0.000000000000000000e+00 7.952429945328480798e+00 0.000000000000000000e+00 0.000000000000000000e+00 0.000000000000000000e+00 7.952419940116073782e+00
7.939485492790647747e+00 -0.000000000000000000e+00 0.000000000000000000e+00 -0.000000000000000000e+00 7.940164797659364559e+00 0.000000000000000000e+00 0.000000000000000000e+00 0.000000000000000000e+00 7.940154807877868315e+00
7.931731755374495485e+00 -0.000000000000000000e+00 0.000000000000000000e+00 -0.000000000000000000e+00 7.932410396831031107e+00 0.000000000000000000e+00 0.000000000000000000e+00 0.000000000000000000e+00 7.932400416805478471e+00
7.928788847711758514e+00 -0.000000000000000000e+00 0.000000000000000000e+00 -0.000000000000000000e+00 7.929467237371743416e+00 0.000000000000000000e+00 0.000000000000000000e+00 0.000000000000000000e+00 7.929457261050169237e+00
7.930337034103930982e+00 -0.000000000000000000e+00 0.000000000000000000e+00 -0.000000000000000000e+00 7.931015556227153596e+00 0.000000000000000000e+00 0.000000000000000000e+00 0.000000000000000000e+00 7.931005577956590891e+00
7.935634842878148909e+00 -0.000000000000000000e+00 0.000000000000000000e+00 -0.000000000000000000e+00 7.936313818283760924e+00 0.000000000000000000e+00 0.000000000000000000e+00 0.000000000000000000e+00 7.936303833347237990e+00
7.944477276145438971e+00 -0.000000000000000000e+00 0.000000000000000000e+00 -0.000000000000000000e+00 7.945157008112698094e+00 0.000000000000000000e+00 0.000000000000000000e+00 0.000000000000000000e+00 7.945147012050237656e+00
7.957278598369174283e+00 -0.000000000000000000e+00 0.000000000000000000e+00 -0.000000000000000000e+00 7.957959425621127458e+00 0.000000000000000000e+00 0.000000000000000000e+00 0.000000000000000000e+00 7.957949413451760101e+00
7.973721088503249455e+00 -0.000000000000000000e+00 0.000000000000000000e+00 -0.000000000000000000e+00 7.974403322580104536e+00 0.000000000000000000e+00 0.000000000000000000e+00 0.000000000000000000e+00 7.974393289722857325e+00
7.992474816551142780e+00 -0.000000000000000000e+00 0.000000000000000000e+00 -0.000000000000000000e+00 7.993158655202761587e+00 0.000000000000000000e+00 0.000000000000000000e+00 0.000000000000000000e+00 7.993148598748649469e+00
8.011975229334895587e+00 -0.000000000000000000e+00 0.000000000000000000e+00 -0.000000000000000000e+00 8.012660736447909215e+00 0.000000000000000000e+00 0.000000000000000000e+00 0.000000000000000000e+00 8.012650655456937443e+00
8.031116235046502183e+00 -0.000000000000000000e+00 0.000000000000000000e+00 -0.000000000000000000e+00 8.031803379870089188e+00 0.000000000000000000e+00 0.000000000000000000e+00 0.000000000000000000e+00 8.031793274795257176e+00
8.049262125100295151e+00 -0.000000000000000000e+00 0.000000000000000000e+00 -0.000000000000000000e+00 8.049950822490943736e+00 0.000000000000000000e+00 0.000000000000000000e+00 0.000000000000000000e+00 8.049940694584243772e+00
8.065279812246663127e+00 -0.000000000000000000e+00 0.000000000000000000e+00 -0.000000000000000000e+00 8.065969880116425017e+00 0.000000000000000000e+00 0.000000000000000000e+00 0.000000000000000000e+00 8.065959732055841158e+00
8.076657113525492093e+00 -0.000000000000000000e+00 0.000000000000000000e+00 -0.000000000000000000e+00 8.077348154841649475e+00 0.000000000000000000e+00 0.000000000000000000e+00 0.000000000000000000e+00 8.077337992465146499e+00
8.081430015050232285e+00 -0.000000000000000000e+00 0.000000000000000000e+00 -0.000000000000000000e+00 8.082121464737040739e+00 0.000000000000000000e+00 0.000000000000000000e+00 0.000000000000000000e+00 8.082111296354574037e+00
8.080038265601562131e+00 -0.000000000000000000e+00 0.000000000000000000e+00 -0.000000000000000000e+00 8.080729596209055288e+00 0.000000000000000000e+00 0.000000000000000000e+00 0.000000000000000000e+00 8.080719429578577362e+00
8.075234132742599158e+00 -0.000000000000000000e+00 0.000000000000000000e+00 -0.000000000000000000e+00 8.075925052306455854e+00 0.000000000000000000e+00 0.000000000000000000e+00 0.000000000000000000e+00 8.075914891720945121e+00
8.069266949537500011e+00 -0.000000000000000000e+00 0.000000000000000000e+00 -0.000000000000000000e+00 8.069957358547299009e+00 0.000000000000000000e+00 0.000000000000000000e+00 0.000000000000000000e+00 8.069947205469741647e+00
8.061178372746784504e+00 -0.000000000000000000e+00 0.000000000000000000e+00 -0.000000000000000000e+00 8.061868089696565320e+00 0.000000000000000000e+00 0.000000000000000000e+00 0.000000000000000000e+00 8.061857946795953467e+00
8.049738118987329827e+00 -0.000000000000000000e+00 0.000000000000000000e+00 -0.000000000000000000e+00 8.050426857104746148e+00 0.000000000000000000e+00 0.000000000000000000e+00 0.000000000000000000e+00 8.050416728599048000e+00
8.035729461746379698e+00 -0.000000000000000000e+00 0.000000000000000000e+00 -0.000000000000000000e+00 8.036417001279694716e+00 0.000000000000000000e+00 0.000000000000000000e+00 0.000000000000000000e+00 8.036406890399895531e+00
8.021687961408483503e+00 -0.000000000000000000e+00 0.000000000000000000e+00 -0.000000000000000000e+00 8.022374299545715459e+00 0.000000000000000000e+00 0.000000000000000000e+00 0.000000000000000000e+00 8.022364206333815417e+00
8.010052108263959525e+00 -0.000000000000000000e+00 0.000000000000000000e+00 -0.000000000000000000e+00 8.010737450834920281e+00 0.000000000000000000e+00 0.000000000000000000e+00 0.000000000000000000e+00 8.010727372263936275e+00
8.001579509123791567e+00 -0.000000000000000000e+00 0.000000000000000000e+00 -0.000000000000000000e+00 8.002264126775925135e+00 0.000000000000000000e+00 0.000000000000000000e+00 0.000000000000000000e+00 8.002254058864879838e+00
7.994881514907462794e+00 -0.000000000000000000e+00 0.000000000000000000e+00 -0.000000000000000000e+00 7.995565559476895956e+00 0.000000000000000000e+00 0.000000000000000000e+00 0.000000000000000000e+00 7.995555499993802329e+00
7.989576739836345531e+00 -0.000000000000000000e+00 0.000000000000000000e+00 -0.000000000000000000e+00 7.990260330527391375e+00 0.000000000000000000e+00 0.000000000000000000e+00 0.000000000000000000e+00 7.990250277719258776e+00
7.986455881292947367e+00 -0.000000000000000000e+00 0.000000000000000000e+00 -0.000000000000000000e+00 7.987139204962530492e+00 0.000000000000000000e+00 0.000000000000000000e+00 0.000000000000000000e+00 7.987129156081374859e+00
7.988011324083349685e+00 -0.000000000000000000e+00 0.000000000000000000e+00 -0.000000000000000000e+00 7.988694780836167020e+00 0.000000000000000000e+00 0.000000000000000000e+00 0.000000000000000000e+00 7.988684729998023037e+00
7.995181016012444353e+00 -0.000000000000000000e+00 0.000000000000000000e+00 -0.000000000000000000e+00 7.995865086206730865e+00 0.000000000000000000e+00 0.000000000000000000e+00 0.000000000000000000e+00 7.995855026347637562e+00
8.006021605639745076e+00 -0.000000000000000000e+00 0.000000000000000000e+00 -0.000000000000000000e+00 8.006706603358692220e+00 0.000000000000000000e+00 0.000000000000000000e+00 0.000000000000000000e+00 8.006696529858679412e+00
8.017786333731427462e+00 -0.000000000000000000e+00 0.000000000000000000e+00 -0.000000000000000000e+00 8.018472338044581704e+00 0.000000000000000000e+00 0.000000000000000000e+00 0.000000000000000000e+00 8.018462249742650982e+00
8.028273846467145702e+00 -0.000000000000000000e+00 0.000000000000000000e+00 -0.000000000000000000e+00 8.028960748095133937e+00 0.000000000000000000e+00 0.000000000000000000e+00 0.000000000000000000e+00 8.028950646596280549e+00
8.037039188105200793e+00 -0.000000000000000000e+00 0.000000000000000000e+00 -0.000000000000000000e+00 8.037726839698869696e+00 0.000000000000000000e+00 0.000000000000000000e+00 0.000000000000000000e+00 8.037716727171082098e+00
8.046243252849832217e+00 -0.000000000000000000e+00 0.000000000000000000e+00 -0.000000000000000000e+00 8.046931691945969689e+00 0.000000000000000000e+00 0.000000000000000000e+00 0.000000000000000000e+00 8.046921567837246769e+00
8.057067182945031547e+00 -0.000000000000000000e+00 0.000000000000000000e+00 -0.000000000000000000e+00 8.057756548139838770e+00 0.000000000000000000e+00 0.000000000000000000e+00 0.000000000000000000e+00 8.057746410412192972e+00
8.068044848359283705e+00 -0.000000000000000000e+00 0.000000000000000000e+00 -0.000000000000000000e+00 8.068735152806683075e+00 0.000000000000000000e+00 0.000000000000000000e+00 0.000000000000000000e+00 8.068725001266118468e+00
8.076645085441729321e+00 -0.000000000000000000e+00 0.000000000000000000e+00 -0.000000000000000000e+00 8.077336125727892835e+00 0.000000000000000000e+00 0.000000000000000000e+00 0.000000000000000000e+00 8.077325963366391193e+00
8.081359614640479805e+00 -0.000000000000000000e+00 0.000000000000000000e+00 -0.000000000000000000e+00 8.082051058303321156e+00 0.000000000000000000e+00 0.000000000000000000e+00 0.000000000000000000e+00 8.082040890010851797e+00
8.081479995604530231e+00 -0.000000000000000000e+00 0.000000000000000000e+00 -0.000000000000000000e+00 8.082171449567313815e+00 0.000000000000000000e+00 0.000000000000000000e+00 0.000000000000000000e+00 8.082161281122845153e+00
8.077404669233336776e+00 -0.000000000000000000e+00 0.000000000000000000e+00 -0.000000000000000000e+00 8.078095774510124727e+00 0.000000000000000000e+00 0.000000000000000000e+00 0.000000000000000000e+00 8.078085611192628690e+00
8.069609865152575168e+00 -0.000000000000000000e+00 0.000000000000000000e+00 -0.000000000000000000e+00 8.070300303503204375e+00 0.000000000000000000e+00 0.000000000000000000e+00 0.000000000000000000e+00 8.070290149994649553e+00
8.058160572679149425e+00 -0.000000000000000000e+00 0.000000000000000000e+00 -0.000000000000000000e+00 8.058850031425418337e+00 0.000000000000000000e+00 0.000000000000000000e+00 0.000000000000000000e+00 8.058839892321783438e+00
8.043311580993417920e+00 -0.000000000000000000e+00 0.000000000000000000e+00 -0.000000000000000000e+00 8.043999769255000487e+00 0.000000000000000000e+00 0.000000000000000000e+00 0.000000000000000000e+00 8.043989648835255579e+00
8.025929565461533244e+00 -0.000000000000000000e+00 0.000000000000000000e+00 -0.000000000000000000e+00 8.026616266512675679e+00 0.000000000000000000e+00 0.000000000000000000e+00 0.000000000000000000e+00 8.026606167963805660e+00
8.007596172769062548e+00 -0.000000000000000000e+00 0.000000000000000000e+00 -0.000000000000000000e+00 8.008281305208234002e+00 0.000000000000000000e+00 0.000000000000000000e+00 0.000000000000000000e+00 8.008271229727231599e+00
7.989829740146999981e+00 -0.000000000000000000e+00 0.000000000000000000e+00 -0.000000000000000000e+00 7.990513352484921228e+00 0.000000000000000000e+00 0.000000000000000000e+00 0.000000000000000000e+00 7.990503299358790557e+00
7.973821517156151728e+00 -0.000000000000000000e+00 0.000000000000000000e+00 -0.000000000000000000e+00 7.974503759825957161e+00 0.000000000000000000e+00 0.000000000000000000e+00 0.000000000000000000e+00 7.974493726841710206e+00
7.960614377112427142e+00 -0.000000000000000000e+00 0.000000000000000000e+00 -0.000000000000000000e+00 7.961295489774737888e+00 0.000000000000000000e+00 0.000000000000000000e+00 0.000000000000000000e+00 7.961285473408394431e+00
7.950974729399142404e+00 -0.000000000000000000e+00 0.000000000000000000e+00 -0.000000000000000000e+00 7.951655017290200078e+00 0.000000000000000000e+00 0.000000000000000000e+00 0.000000000000000000e+00 7.951645013052787370e+00
7.944997366977640141e+00 -0.000000000000000000e+00 0.000000000000000000e+00 -0.000000000000000000e+00 7.945677143443642620e+00 0.000000000000000000e+00 0.000000000000000000e+00 0.000000000000000000e+00 7.945667146727186214e+00
7.941960608878134487e+00 -0.000000000000000000e+00 0.000000000000000000e+00 -0.000000000000000000e+00 7.942640125518631855e+00 0.000000000000000000e+00 0.000000000000000000e+00 0.000000000000000000e+00 7.942630132623154537e+00
7.941933268320514827e+00 -0.000000000000000000e+00 0.000000000000000000e+00 -0.000000000000000000e+00 7.942612782622025414e+00 0.000000000000000000e+00 0.000000000000000000e+00 0.000000000000000000e+00 7.942602789760547566e+00
7.945188100745719240e+00 -0.000000000000000000e+00 0.000000000000000000e+00 -0.000000000000000000e+00 7.945867893531627146e+00 0.000000000000000000e+00 0.000000000000000000e+00 0.000000000000000000e+00 7.945857896574172408e+00
7.951314766913783139e+00 -0.000000000000000000e+00 0.000000000000000000e+00 -0.000000000000000000e+00 7.951995083898673933e+00 0.000000000000000000e+00 0.000000000000000000e+00 0.000000000000000000e+00 7.951985079233264031e+00
7.959472055760972609e+00 -0.000000000000000000e+00 0.000000000000000000e+00 -0.000000000000000000e+00 7.960153070685845655e+00 0.000000000000000000e+00 0.000000000000000000e+00 0.000000000000000000e+00 7.960143055756494945e+00
7.968203043678776964e+00 -0.000000000000000000e+00 0.000000000000000000e+00 -0.000000000000000000e+00 7.968884805630350066e+00 0.000000000000000000e+00 0.000000000000000000e+00 0.000000000000000000e+00 7.968874779715061862e+00
7.976533160969113467e+00 -0.000000000000000000e+00 0.000000000000000000e+00 -0.000000000000000000e+00 7.977215635647583625e+00 0.000000000000000000e+00 0.000000000000000000e+00 0.000000000000000000e+00 7.977205599251355750e+00
7.984639178350436239e+00 -0.000000000000000000e+00 0.000000000000000000e+00 -0.000000000000000000e+00 7.985322346582914399e+00 0.000000000000000000e+00 0.000000000000000000e+00 0.000000000000000000e+00 7.985312299986746076e+00
7.992140182865395737e+00 -0.000000000000000000e+00 0.000000000000000000e+00 -0.000000000000000000e+00 7.992823992886179063e+00 0.000000000000000000e+00 0.000000000000000000e+00 0.000000000000000000e+00 7.992813936852064316e+00
7.998392169666076690e+00 -0.000000000000000000e+00 0.000000000000000000e+00 -0.000000000000000000e+00 7.999076514608780997e+00 0.000000000000000000e+00 0.000000000000000000e+00 0.000000000000000000e+00 7.999066450708712139e+00
8.003091731417983468e+00 -0.000000000000000000e+00 0.000000000000000000e+00 -0.000000000000000000e+00 8.003776478456373411e+00 0.000000000000000000e+00 0.000000000000000000e+00 0.000000000000000000e+00 8.003766408642338348e+00
8.006251601658819439e+00 -0.000000000000000000e+00 0.000000000000000000e+00 -0.000000000000000000e+00 8.006936619056652660e+00 0.000000000000000000e+00 0.000000000000000000e+00 0.000000000000000000e+00 8.006926545267640805e+00
8.008964593934019049e+00 -0.000000000000000000e+00 0.000000000000000000e+00 -0.000000000000000000e+00 8.009649843455516560e+00 0.000000000000000000e+00 0.000000000000000000e+00 0.000000000000000000e+00 8.009639766252522719e+00
8.012181625785816053e+00 -0.000000000000000000e+00 0.000000000000000000e+00 -0.000000000000000000e+00 8.012867150557728024e+00 0.000000000000000000e+00 0.000000000000000000e+00 0.000000000000000000e+00 8.012857069307758096e+00
8.014908516071013622e+00 -0.000000000000000000e+00 0.000000000000000000e+00 -0.000000000000000000e+00 8.015594274156581989e+00 0.000000000000000000e+00 0.000000000000000000e+00 0.000000000000000000e+00 8.015584189475633892e+00
8.015486780904346631e+00 -0.000000000000000000e+00 0.000000000000000000e+00 -0.000000000000000000e+00 8.016172588466631055e+00 0.000000000000000000e+00 0.000000000000000000e+00 0.000000000000000000e+00 8.016162503057685740e+00
8.014322858698234242e+00 -0.000000000000000000e+00 0.000000000000000000e+00 -0.000000000000000000e+00 8.015008566675092538e+00 0.000000000000000000e+00 0.000000000000000000e+00 0.000000000000000000e+00 8.014998482730138818e+00
8.013460181593062615e+00 -0.000000000000000000e+00 0.000000000000000000e+00 -0.000000000000000000e+00 8.014145815759345481e+00 0.000000000000000000e+00 0.000000000000000000e+00 0.000000000000000000e+00 8.014135732899385189e+00
8.013151213171576970e+00 -0.000000000000000000e+00 0.000000000000000000e+00 -0.000000000000000000e+00 8.013836820902012548e+00 0.000000000000000000e+00 0.000000000000000000e+00 0.000000000000000000e+00 8.013826738431049534e+00
8.012577608215421421e+00 -0.000000000000000000e+00 0.000000000000000000e+00 -0.000000000000000000e+00 8.013263166868137333e+00 0.000000000000000000e+00 0.000000000000000000e+00 0.000000000000000000e+00 8.013253085120171093e+00
8.011318903002907277e+00 -0.000000000000000000e+00 0.000000000000000000e+00 -0.000000000000000000e+00 8.012004353961245329e+00 0.000000000000000000e+00 0.000000000000000000e+00 0.000000000000000000e+00 8.011994273795268739e+00
8.009888313584809794e+00 -0.000000000000000000e+00 0.000000000000000000e+00 -0.000000000000000000e+00 8.010573642140853323e+00 0.000000000000000000e+00 0.000000000000000000e+00 0.000000000000000000e+00 8.010563563775868090e+00
8.009106247904616893e+00 -0.000000000000000000e+00 0.000000000000000000e+00 -0.000000000000000000e+00 8.009791509547044441e+00 0.000000000000000000e+00 0.000000000000000000e+00 0.000000000000000000e+00 8.009781432166052539e+00
8.008630036347833325e+00 -0.000000000000000000e+00 0.000000000000000000e+00 -0.000000000000000000e+00 8.009315257244495001e+00 0.000000000000000000e+00 0.000000000000000000e+00 0.000000000000000000e+00 8.009305180462501284e+00
8.009069695239023901e+00 -0.000000000000000000e+00 0.000000000000000000e+00 -0.000000000000000000e+00 8.009754953754470108e+00 0.000000000000000000e+00 0.000000000000000000e+00 0.000000000000000000e+00 8.009744876419478743e+00
8.010616798468431554e+00 -0.000000000000000000e+00 0.000000000000000000e+00 -0.000000000000000000e+00 8.011302189353116887e+00 0.000000000000000000e+00 0.000000000000000000e+00 0.000000000000000000e+00 8.011292110072135486e+00
8.011919659635770685e+00 -0.000000000000000000e+00 0.000000000000000000e+00 -0.000000000000000000e+00 8.012605161994812875e+00 0.000000000000000000e+00 0.000000000000000000e+00 0.000000000000000000e+00 8.012595081073841996e+00
8.014575467905139305e+00 -0.000000000000000000e+00 0.000000000000000000e+00 -0.000000000000000000e+00 8.015261197495872736e+00 0.000000000000000000e+00 0.000000000000000000e+00 0.000000000000000000e+00 8.015251113232919167e+00
8.019320389411941363e+00 -0.000000000000000000e+00 0.000000000000000000e+00 -0.000000000000000000e+00 8.020006524978338547e+00 0.000000000000000000e+00 0.000000000000000000e+00 0.000000000000000000e+00 8.019996434746420988e+00
8.024441677660265171e+00 -0.000000000000000000e+00 0.000000000000000000e+00 -0.000000000000000000e+00 8.025128251407139146e+00 0.000000000000000000e+00 0.000000000000000000e+00 0.000000000000000000e+00 8.025118154730257913e+00
8.029591313457409285e+00 -0.000000000000000000e+00 0.000000000000000000e+00 -0.000000000000000000e+00 8.030278327808749950e+00 0.000000000000000000e+00 0.000000000000000000e+00 0.000000000000000000e+00 8.030268224651905484e+00
8.036283898855874241e+00 -0.000000000000000000e+00 0.000000000000000000e+00 -0.000000000000000000e+00 8.036971485825915806e+00 0.000000000000000000e+00 0.000000000000000000e+00 0.000000000000000000e+00 8.036961374249120382e+00
8.045976128284483053e+00 -0.000000000000000000e+00 0.000000000000000000e+00 -0.000000000000000000e+00 8.046664544525750529e+00 0.000000000000000000e+00 0.000000000000000000e+00 0.000000000000000000e+00 8.046654420753025505e+00
8.056999214734277714e+00 -0.000000000000000000e+00 0.000000000000000000e+00 -0.000000000000000000e+00 8.057688574114116875e+00 0.000000000000000000e+00 0.000000000000000000e+00 0.000000000000000000e+00 8.057678436471471528e+00
8.065872164670905065e+00 -0.000000000000000000e+00 0.000000000000000000e+00 -0.000000000000000000e+00 8.066562283222374674e+00 0.000000000000000000e+00 0.000000000000000000e+00 0.000000000000000000e+00 8.066552134415793773e+00
8.071471032752134178e+00 -0.000000000000000000e+00 0.000000000000000000e+00 -0.000000000000000000e+00 8.072161630344847794e+00 0.000000000000000000e+00 0.000000000000000000e+00 0.000000000000000000e+00 8.072151474493306722e+00
8.074930368817152981e+00 -0.000000000000000000e+00 0.000000000000000000e+00 -0.000000000000000000e+00 8.075621262391162958e+00 0.000000000000000000e+00 0.000000000000000000e+00 0.000000000000000000e+00 8.075611102187647106e+00