1.872868065700000056e-02 7.945751179340000192e+00 3.993570633929000024e+00 3.983197730993000008e+00 7.936750845787000408e+00 3.065883197600000054e-02 3.925180871453000098e+00 3.988323192899999814e+00 7.945078975598000248e+00 4.023446987290999921e+00 3.922339616083999836e+00 3.984131208031000071e+00 1.929370404699999944e-02 4.610097848599999798e-02 7.921702570187999726e+00 1.420844684999999965e-03 3.966629918325999871e+00 1.195817088400000054e-02 7.907747201387000047e+00 3.967835611792000172e+00 3.980108821027000143e+00 4.007531346630000435e+00 2.862291557099999953e-02 3.929698459487999784e+00 2.007261825724000026e+00 1.996138947586999945e+00 1.990724350138999954e+00 1.979478525950000067e+00 1.977481905991999911e+00 5.982170452143999562e+00 1.974306918611999917e+00 5.990987182692999902e+00 1.987010671368000025e+00 1.986092583165999903e+00 5.945111137904000032e+00 5.952100127821999820e+00 5.964121141933000025e+00 1.975837656840000012e+00 1.973621117169999994e+00 5.971877370908999616e+00 2.001981873506000209e+00 5.961614493515000390e+00 5.961848832902999717e+00 5.954848702222999890e+00 1.963807428346999950e+00 5.967680840632000105e+00 5.956398528708000129e+00 5.987538793209999710e+00 1.960319819164999977e+00 2.069955688335999966e+00 2.416760774999999941e-03 7.921183304600000419e+00 1.991668329409999938e+00 2.013096296876999869e+00 1.984837829289000100e+00 8.714817692000000407e-03 1.955632899383999979e+00 2.010662403797999875e+00 2.041110685749000009e+00 3.927417672268000093e+00 1.155758480399999948e-02 1.961275028533000064e+00 5.966436068534999748e+00 2.011452346971000171e+00 4.161290851599999674e-02 5.947830119977999708e+00 1.945857392204999980e+00 5.980201317677999562e+00 7.915489824201999980e+00 4.207190402299999799e-02 5.980813478295000429e+00 1.988465170276999983e+00 1.969763343294999913e+00 4.012306650174999767e+00 1.986063281060000074e+00 2.002712774292000120e+00 5.951359924879000118e+00 4.023210624766999643e+00 1.475448433000000085e-03 5.983647893308999599e+00 5.968911555773999567e+00 1.898107891825999927e+00 4.049104600395000197e+00 5.930737064846000273e+00 6.010929051107999577e+00 1.933334015845000087e+00 4.141736964699999773e-02 3.942062023210000099e+00 1.971806699614000014e+00 1.939674295014000016e+00 5.930048186407000266e+00 7.932558511047999694e+00 2.044514536043000152e+00 5.881826921495999727e+00 1.989555406190999909e+00 4.039240309978000099e+00 4.024409918323000213e+00 1.946407316691999956e+00 6.011807487467000222e+00 5.935686428050000352e+00 7.926430390094999723e+00 5.929499478261000434e+00 5.999298159264999875e+00 5.909350757843999880e+00 7.929741722772999601e+00 3.985289334291000074e+00 5.959870070348999960e+00 2.007523505332999836e+00 5.953723426410999942e+00 3.995586380395999893e+00 1.965174637834000038e+00 5.963986773522999663e+00 5.939164221629000373e+00 3.957225764183999850e+00 3.998970858014000207e+00 5.997934828260000018e+00 5.962969702018000362e+00 5.989160883981000438e+00 4.001865054379000419e+00 6.016035998379999583e+00
5.072014874900000053e-02 7.933168864324000147e+00 4.025730665419000154e+00 3.997109360515000098e+00 7.908178774001999756e+00 8.324528551800000620e-02 3.833897953776999934e+00 4.012650131877999904e+00 7.933007845424000060e+00 4.108240368399999731e+00 3.830297624263999889e+00 3.998614476443000054e+00 5.536321019399999960e-02 1.281287667559999899e-01 7.865103076910999746e+00 5.614064838999999890e-03 3.952592448973999861e+00 3.403193376599999986e-02 7.830038305033999890e+00 3.956584027926000058e+00 3.987177998143999869e+00 4.069695957367000183e+00 7.679383057100000465e-02 3.848764719451999827e+00 2.053370626506000107e+00 2.015775908355000201e+00 1.997642713729999908e+00 1.979563169708999926e+00 1.956173664917000066e+00 6.015922303483000277e+00 1.963968688186999989e+00 6.035239185156999753e+00 1.984249305722999956e+00 1.995876731425000106e+00 5.912129168641000021e+00 5.931967397644999807e+00 5.956829224145000268e+00 1.953146333480999974e+00 1.945920614797000070e+00 5.971425016327000179e+00 2.023576448712999909e+00 5.957549167565000303e+00 5.943754316034000063e+00 5.937342094523000213e+00 1.927275627705999916e+00 5.963067377483000087e+00 5.948762887244000375e+00 6.022963753771000128e+00 1.944990755519999892e+00 2.216408285193999905e+00 7.934889580921000274e+00 7.861274621017000364e+00 1.989111679167000046e+00 2.074614831837000128e+00 1.991448336134999941e+00 4.050480737400000142e-02 1.899722332172999906e+00 2.065332558095000159e+00 2.132641049292999913e+00 3.876123193421999957e+00 3.961952570300000115e-02 1.908446015640000049e+00 5.960410534981000374e+00 2.063542284557000173e+00 1.457204304309999976e-01 5.918035206177999719e+00 1.924457146139999963e+00 6.017400919577999829e+00 7.888958315795999710e+00 9.027441784299999883e-02 6.023878000912000097e+00 1.998638897645000023e+00 1.979662891278999970e+00 4.064734408200999738e+00 1.978038960734000096e+00 2.044082050896999903e+00 5.950138230379000248e+00 4.049163315459000323e+00 7.952297312922000039e+00 6.042439975823000076e+00 5.966013774787000123e+00 1.792020557637000078e+00 4.104288395244999776e+00 5.874931604126000018e+00 6.053707294664000038e+00 1.834702446584999924e+00 1.090649117039999977e-01 3.906702808448999864e+00 1.957612349094999926e+00 1.844679435740999907e+00 5.857829972978000121e+00 7.923345280539000335e+00 2.142130984876999822e+00 5.734394792770999949e+00 1.997350005031000020e+00 4.117744560464999815e+00 4.067806228561999582e+00 1.906146897259999973e+00 6.117910231703000079e+00 5.887714485587999924e+00 7.907901262403999709e+00 5.879760630505000307e+00 6.023167843208000249e+00 5.825018633858999983e+00 7.930223413405999899e+00 3.997698166494000116e+00 5.947245189903999751e+00 2.019784905604999903e+00 5.895747213171000034e+00 3.992188038329000044e+00 1.927602826191000096e+00 5.963396674813999709e+00 5.883347479171000316e+00 3.915186044869999993e+00 4.025162096385000332e+00 6.037781635136999725e+00 5.978470878608000305e+00 5.997098268011000322e+00 3.995097895393000087e+00 6.107327732149999910e+00
7.394729949099999866e-02 7.922886499861999887e+00 4.055072571482000399e+00 4.011884056363999917e+00 7.883871372832000013e+00 1.224272552019999988e-01 3.755361961266999948e+00 4.040878112856000293e+00 7.926872342434999830e+00 4.176854850121999974e+00 3.767192692126000164e+00 4.011213641994999968e+00 9.064319224000000341e-02 1.988115860699999904e-01 7.814288463575000065e+00 1.362640008900000040e-02 3.946914420121999889e+00 5.579028703200000078e-02 7.766212631956999957e+00 3.954636023223999874e+00 3.992349630519000048e+00 4.136534370868999666e+00 1.109006768000000004e-01 3.785448781953999919e+00 2.086801311038999795e+00 2.046341912313000222e+00 2.009867540285999787e+00 1.985584680162000071e+00 1.944115680869999974e+00 6.049332194485000258e+00 1.956833506453000027e+00 6.066343711086999768e+00 1.980821961936999998e+00 2.002295263798000047e+00 5.887030244633000287e+00 5.918312053288000030e+00 5.965193007268999814e+00 1.930524352503999896e+00 1.922448375542999965e+00 5.967728334219000175e+00 2.032200980778000154e+00 5.957596188311000240e+00 5.925358618687999623e+00 5.922018117129000281e+00 1.917121224016000047e+00 5.965794521369000236e+00 5.961069177820999876e+00 6.037883134280000341e+00 1.901003232514000052e+00 2.334556180288000160e+00 7.894175966070999806e+00 7.826045601065000135e+00 1.992939534185999895e+00 2.147176127827000069e+00 1.995481716115000026e+00 1.032312361039999932e-01 1.855359564091999980e+00 2.117969642120999918e+00 2.197963767156999815e+00 3.896745417602999861e+00 4.374378156900000231e-02 1.874274390037000027e+00 5.954149164991999754e+00 2.105438453001999832e+00 1.901834661050000042e-01 5.891997654439999899e+00 1.930224582202000105e+00 6.069692113620999585e+00 7.922378564098999654e+00 6.169029137999999801e-02 6.068741745748999605e+00 2.005665001325999786e+00 1.982507611521999946e+00 4.088179059065000231e+00 1.960454191800000023e+00 2.085563679487000055e+00 6.005738835960999999e+00 3.970826693254000173e+00 7.946324164184000338e+00 6.123425957479000203e+00 5.963422359545999640e+00 1.725532837535000086e+00 4.039142795396999830e+00 5.836423083894000108e+00 6.101412079816999956e+00 1.740906927229999956e+00 1.095542465070000054e-01 3.925503284379999958e+00 1.955232492358000007e+00 1.769267598164999900e+00 5.797968235213000199e+00 7.950915017883000147e+00 2.215436058264999897e+00 5.646034854186000373e+00 2.009881070386999813e+00 4.114393556136000107e+00 4.031714209662999870e+00 1.926908864245000075e+00 6.234367577480999678e+00 5.883099757992000356e+00 7.917288050229999818e+00 5.870815369545000273e+00 6.055590014382000064e+00 5.789703624241999691e+00 2.787022153799999930e-02 3.998542372350999852e+00 5.957741016886999752e+00 2.002231462675000184e+00 5.857911095293999892e+00 3.925139557088999975e+00 1.903527053224000065e+00 5.991778165801999734e+00 5.803534173493999582e+00 3.893689748779999960e+00 4.008775210982999937e+00 6.046080345872000272e+00 6.006762901935999821e+00 6.022088856855000394e+00 3.910222218358999857e+00 6.180671015641999944e+00
8.660081501699999629e-02 7.918694557744999862e+00 4.076111904824999854e+00 4.026766652012000236e+00 7.866896295495999780e+00 1.436485949669999984e-01 3.697550486947999815e+00 4.071220794665999954e+00 7.928112056496999571e+00 4.215434729148999971e+00 3.748376021058999807e+00 4.019270853901000251e+00 1.241722374269999957e-01 2.546577982909999927e-01 7.773574315799000267e+00 2.330441741399999836e-02 3.947029313553000129e+00 7.804645216000000163e-02 7.719137861617999974e+00 3.956632115702999997e+00 3.992194801790999836e+00 4.196718136319000259e+00 1.295346407119999932e-01 3.747669535371000116e+00 2.106385745519999908e+00 2.088520086502000161e+00 2.030388893007000206e+00 1.999362803387999987e+00 1.950258065864999946e+00 6.077003612380999620e+00 1.947655414985000055e+00 6.084086506236999981e+00 1.975890823012000030e+00 2.001961618504000118e+00 5.865120201979999948e+00 5.908033084718000261e+00 5.989871457982999914e+00 1.908153304610000101e+00 1.904661218358000063e+00 5.959441687164999557e+00 2.022743364164000024e+00 5.962123945942000347e+00 5.907789146245000289e+00 5.907697461318999643e+00 1.939390774352000024e+00 5.976738749444000298e+00 5.993423773526999732e+00 6.031912397232000345e+00 1.817573973492000006e+00 2.400994648453000035e+00 7.900414845894999871e+00 7.857253920141999970e+00 2.006426580888999833e+00 2.226466519815999856e+00 1.990710590496000076e+00 1.686807826860000081e-01 1.826901144577999903e+00 2.168226983209999847e+00 2.217937499786000188e+00 3.938236102162000041e+00 7.951878862104000412e+00 1.852153837496000044e+00 5.939493218951000131e+00 2.130992106986000056e+00 7.104534852199999306e-02 5.871249311098999613e+00 1.957837023358999895e+00 6.119712541806999972e+00 7.931393126418999628e+00 7.947943248135000083e+00 6.111274595422999667e+00 2.007405267508000080e+00 1.973356103863000088e+00 4.101554741163999651e+00 1.935407530046999947e+00 2.119838123865999790e+00 6.106043575935999890e+00 3.898583294219000184e+00 7.951760722320999619e+00 6.198825815499000136e+00 5.965269915406000045e+00 1.706615853278999895e+00 4.009793684341000031e+00 5.811580090442999946e+00 6.158226724681999720e+00 1.648343440687999983e+00 2.431239023800000135e-02 3.949613685817999986e+00 1.974185938855000044e+00 1.716923129520999902e+00 5.762045911833999945e+00 7.953272983363000037e+00 2.252999133207000071e+00 5.643093579311000418e+00 1.999835106204999935e+00 4.074673398666000423e+00 3.969971144305000088e+00 2.006525838248999882e+00 6.340482089840000057e+00 5.907163940968000126e+00 7.880347091427999828e+00 5.899599962145999577e+00 6.091938926660000142e+00 5.806774715244999996e+00 3.677709930100000330e-02 3.989130631552999962e+00 5.989918449842000392e+00 1.954304213721000050e+00 5.841156239084000390e+00 3.863285302826999779e+00 1.891127199478999987e+00 6.040197134566000159e+00 5.702685875192000431e+00 3.949109731419000013e+00 3.963179571812000201e+00 6.004899708333000241e+00 6.043023717525000116e+00 6.062258245849999838e+00 3.862100207061999857e+00 6.228457709806000331e+00
8.998534884000000678e-02 7.921950552873999740e+00 4.084094420735000064e+00 4.038851474182999723e+00 7.857004685976000324e+00 1.433296878850000011e-01 3.665722117251999812e+00 4.102157557408999899e+00 7.935549235691000014e+00 4.218450144092999565e+00 3.777253767925000005e+00 4.022399420613999688e+00 1.572860124719999975e-01 2.877157752949999758e-01 7.743770282096999580e+00 2.770637165400000046e-02 3.953877106628000071e+00 9.889911455199999757e-02 7.688253980354000205e+00 3.954436253887999797e+00 3.987006192173999874e+00 4.229672005175999949e+00 1.325484891550000044e-01 3.743044413214000166e+00 2.113094460699000088e+00 2.135380129790999781e+00 2.060097150444999858e+00 2.017896138548000096e+00 1.951843281784999995e+00 6.093894134402000340e+00 1.928871829770000046e+00 6.093715687466000119e+00 1.966602577985999911e+00 1.994960940289999929e+00 5.855767441186999989e+00 5.900068182080000057e+00 6.031752610720999996e+00 1.884062703609999945e+00 1.885095430555999929e+00 5.951644298203000005e+00 2.001699368072999974e+00 5.969965882034999893e+00 5.895061633707999960e+00 5.892257055171000069e+00 1.983739055547999897e+00 5.994979520088000058e+00 6.033643261532000146e+00 6.009688030809000381e+00 1.699104818117999960e+00 2.395901228996000221e+00 7.941967002185999824e+00 7.915518010169999563e+00 2.029442731721000204e+00 2.289198984921000157e+00 1.972620319678999978e+00 2.050400007890000043e-01 1.815275909724999970e+00 2.215414131584000135e+00 2.186963327727000195e+00 3.971124137148999811e+00 7.885785744818000431e+00 1.834333575065999922e+00 5.905572921022000266e+00 2.125956074117000050e+00 7.940104281170000000e+00 5.875041827185000010e+00 1.985274825932000109e+00 6.140842457577000424e+00 7.900802668124000228e+00 7.886776906427000355e+00 6.139380108053999585e+00 2.005057417099000094e+00 1.947957788822999969e+00 4.130632200894999606e+00 1.916748258783999903e+00 2.138171150302000001e+00 6.212875649029999892e+00 3.876798652121999922e+00 7.233861369000000111e-03 6.228896784241999995e+00 5.972160829396999659e+00 1.724106595727000091e+00 4.031307838616999817e+00 5.793941146739999937e+00 6.214615984174000296e+00 1.565468698597000108e+00 7.929112906358000146e+00 3.954938462137000066e+00 2.017119766560000027e+00 1.690700636092999920e+00 5.765240387147000156e+00 7.909440586408999607e+00 2.245278463435000038e+00 5.715354633939999651e+00 1.949058394186000021e+00 4.043823319239000291e+00 3.904791347714000160e+00 2.111656960301000030e+00 6.402591609595999600e+00 5.915741229027999815e+00 7.820918170156000215e+00 5.938312311666999577e+00 6.113923581705999588e+00 5.866164355899000427e+00 1.331155584099999976e-02 3.976254859822000221e+00 6.027206877398000096e+00 1.894258982270000002e+00 5.845260353829000444e+00 3.849683309562999867e+00 1.884590647680999931e+00 6.079441338051999821e+00 5.602180058955999797e+00 4.060647548200999601e+00 3.927654516046000133e+00 5.907504995770000100e+00 6.070561395743999888e+00 6.103956399694999924e+00 3.870781544728000068e+00 6.241584775898999737e+00
8.612771280099999760e-02 7.932657044617999809e+00 4.076992202298000301e+00 4.045128780637000432e+00 7.852791986695000226e+00 1.207879151599999951e-01 3.660964977163999823e+00 4.133096217188000132e+00 7.948961082281999602e+00 4.193069073065999852e+00 3.840804432161999848e+00 4.023396534248999679e+00 1.933548302230000127e-01 2.886652375339999743e-01 7.725502553566999886e+00 1.976607283499999881e-02 3.973240528988000175e+00 1.135935141080000044e-01 7.674320491191999771e+00 3.940503081496999904e+00 3.982225824183000196e+00 4.223397710430999652e+00 1.206616349360000034e-01 3.769547194648999788e+00 2.108006405802000049e+00 2.174672529747000205e+00 2.094068789255000063e+00 2.034434602860000219e+00 1.940405849178999942e+00 6.102374695347999811e+00 1.899584253955000079e+00 6.104589435584999890e+00 1.951873083806999976e+00 1.984636795289999922e+00 5.867708363365999880e+00 5.895058909797000091e+00 6.088737166629000441e+00 1.858077318415999990e+00 1.863523256888000024e+00 5.954243037308000197e+00 1.986190853150999969e+00 5.978215768176999845e+00 5.890613572248000196e+00 5.874954901314000111e+00 2.029488126182999785e+00 6.018814607030000374e+00 6.056606595446999641e+00 5.984040864896999601e+00 1.573892534397999921e+00 2.314132971464000210e+00 7.962229361651999682e+00 7.935184540827999733e+00 2.059288004874999967e+00 2.312661714410999991e+00 1.944252873861999964e+00 2.130631527690000082e-01 1.820074752495000059e+00 2.256055862359000130e+00 2.116812157552999896e+00 3.994981831080000045e+00 7.843683426453999630e+00 1.817002633735000039e+00 5.849996384998999766e+00 2.098162358505999858e+00 3.083584239599999888e-02 5.915851322822000213e+00 1.989292983648000002e+00 6.123284727345000178e+00 7.884901557830000129e+00 7.871241548423999923e+00 6.139650663165999944e+00 2.008455714262999958e+00 1.906441075904000026e+00 4.172144760211000225e+00 1.920693681788000040e+00 2.136824954463000026e+00 6.293343346756000045e+00 3.866844127043000068e+00 3.974701813800000233e-02 6.202888122154999628e+00 5.978613271929000383e+00 1.754792355875000043e+00 4.014655233121000144e+00 5.778829091440999655e+00 6.251073179569999638e+00 1.507678583818000018e+00 7.969987068363000304e+00 3.959492459669000208e+00 2.075277821372000009e+00 1.695736039927000061e+00 5.810006845549000154e+00 7.862151473439999982e+00 2.199583535925000000e+00 5.811691293405999659e+00 1.876027352229000078e+00 4.033010836933000220e+00 3.853772516314999841e+00 2.201305318884000162e+00 6.406525437872000239e+00 5.871011055219000241e+00 7.863148427988000400e+00 5.952832303881000264e+00 6.103491544032999983e+00 5.949144947990999910e+00 3.277938700699999791e-02 3.965719901772000178e+00 6.047092275307999643e+00 1.852944438863999954e+00 5.874857464060999845e+00 3.865522570348999931e+00 1.882712497408000063e+00 6.087453806853000415e+00 5.532532934207999631e+00 4.141085808515000188e+00 3.937027327851000180e+00 5.776161097614999740e+00 6.069010625855000285e+00 6.127635061499000280e+00 3.853594846703999988e+00 6.218600565795999735e+00
7.576377803900000152e-02 7.952200328416999753e+00 4.054081182920000082e+00 4.044719606712000370e+00 7.854744584392999940e+00 8.064027962900000013e-02 3.681835527725000112e+00 4.160262441631999764e+00 7.970374464555000316e+00 4.146835821415000289e+00 3.920504527862000099e+00 4.024574961729999956e+00 2.318064035140000034e-01 2.558126814960000051e-01 7.720900456216999608e+00 7.978209789629000070e+00 4.005883011981000053e+00 1.194859016119999978e-01 7.678400977661000049e+00 3.908256421314999951e+00 3.981875083877000066e+00 4.182690726340999809e+00 9.888261935099999789e-02 3.814321466165000007e+00 2.096462026980999926e+00 2.196237726464000062e+00 2.125180511798999916e+00 2.041522445276000131e+00 1.926794285286000052e+00 6.108725900718999569e+00 1.862484888688000106e+00 6.126057776705000180e+00 1.934001109732000012e+00 1.978049431235000100e+00 5.889949079267999821e+00 5.890910065018999830e+00 6.151606787399000353e+00 1.832143450495000048e+00 1.849076329249000006e+00 5.972873931098000355e+00 1.981500535321000012e+00 5.978701029700999925e+00 5.891917592073999899e+00 5.856501901414000066e+00 2.060137783736000205e+00 6.041986851298999817e+00 6.058483023221000074e+00 5.972075974228999939e+00 1.479414949169000071e+00 2.183129728912999834e+00 7.950724195537000050e+00 7.919439901949999694e+00 2.094488684923999866e+00 2.298628519085000210e+00 1.913397861823999957e+00 2.059047753890000110e-01 1.838206498788000021e+00 2.282697852305000108e+00 2.028757596855999878e+00 3.991530239848000150e+00 7.832392126885999950e+00 1.800681615055000018e+00 5.792294288858999884e+00 2.065894502166000013e+00 1.714911318400000051e-01 5.987064758583000135e+00 1.962294698723999975e+00 6.079605042528999803e+00 7.888698765196999751e+00 7.911377059224999897e+00 6.105338726928000170e+00 2.027448870554999782e+00 1.854192053620000058e+00 4.185790883133000406e+00 1.952021101534000103e+00 2.119369648884000146e+00 6.332664374602000379e+00 3.874799145456000016e+00 5.061666605299999788e-02 6.143783676245999636e+00 5.977279159949000054e+00 1.782469683196999943e+00 4.002821702717000107e+00 5.762346817343000360e+00 6.265187234445999565e+00 1.488798709007000065e+00 9.154511090399999884e-02 3.952307440579000186e+00 2.136143529014999931e+00 1.734859445964000102e+00 5.878267116105999612e+00 7.850082965122999745e+00 2.150877672075000024e+00 5.875038569168999913e+00 1.815686590922999999e+00 4.047871479325999999e+00 3.861300112523000205e+00 2.252768629810999901e+00 6.363951346337000103e+00 5.771803699390000375e+00 7.945353417235000215e+00 5.932541894721000020e+00 6.065710770097999749e+00 6.031578204122999942e+00 7.719300361200000238e-02 3.963623925197000020e+00 6.036544008892000157e+00 1.859232462603999991e+00 5.932025281369999625e+00 3.892720364590999793e+00 1.887626298837000061e+00 6.067188980821000222e+00 5.519872379884000146e+00 4.138115612315999670e+00 3.987162520113999964e+00 5.664402915196999899e+00 6.024163037100000118e+00 6.128666191113000039e+00 3.821851128227999883e+00 6.180888562516000384e+00
5.853852131900000311e-02 7.981198579770000023e+00 4.016761073193999998e+00 4.039017769495999666e+00 7.864480785445000066e+00 3.145659377199999662e-02 3.726948544813000197e+00 4.178839606090999581e+00 1.843286467700000139e-02 4.083678448518000437e+00 4.002001776146999923e+00 4.025934141163999946e+00 2.647441250540000235e-01 1.911701956619999976e-01 7.733245699429000197e+00 7.951528951118000066e+00 4.046525528677999972e+00 1.172606046909999977e-01 7.698664515647999806e+00 3.859218193180999901e+00 3.987457256436000019e+00 4.119843411049999737e+00 7.314499117999999356e-02 3.866628864932999843e+00 2.085552792022999924e+00 2.199036025715999987e+00 2.147854300913000003e+00 2.038653393781999945e+00 1.940970142747999949e+00 6.120487820025999781e+00 1.822550171370999950e+00 6.161765570723000351e+00 1.917699685961999911e+00 1.983502831370999919e+00 5.905912892142000103e+00 5.883182310313999963e+00 6.203988330710999755e+00 1.809263482591999983e+00 1.860851644932999926e+00 6.004941178551000291e+00 1.983155631455999934e+00 5.963366277509000390e+00 5.892683171266000386e+00 5.839265819138000246e+00 2.070354724378999922e+00 6.053919897206999856e+00 6.050682031102000202e+00 5.980350428500999627e+00 1.444387699551999971e+00 2.057261756177999779e+00 7.925560773991000119e+00 7.937697651079999694e+00 2.134570646968000140e+00 2.273032054554999792e+00 1.884929360487999972e+00 1.736890552919999886e-01 1.860912946718999983e+00 2.283835101221999953e+00 1.942432795039999993e+00 3.961335303253000095e+00 7.866956852006000034e+00 1.789681314324000017e+00 5.760340898902000184e+00 2.042387454213999920e+00 1.364231049640000082e-01 6.062759018377000153e+00 1.916336480897999905e+00 6.032996641845000063e+00 7.886141492518000007e+00 6.570707299999999518e-04 6.046794756680999861e+00 2.058750990959000049e+00 1.805293517089000099e+00 4.142655202004999815e+00 2.004318700609000192e+00 2.093230234827999858e+00 6.332991943696000270e+00 3.937170248961999963e+00 1.662807301099999968e-02 6.086347822671999808e+00 5.966533037952999941e+00 1.796811816029000086e+00 4.073911899408999560e+00 5.743991861673999999e+00 6.273610070275999817e+00 1.501622720542000078e+00 9.616079643000000066e-02 3.919448782734999970e+00 2.188011405260000153e+00 1.797545401132000009e+00 5.954034011285999739e+00 7.874165000672999959e+00 2.134522800629000017e+00 5.875671643283999934e+00 1.797099121997000060e+00 4.083245152976999748e+00 3.923553840218000133e+00 2.259636225343999882e+00 6.295050245518000409e+00 5.649200663999000227e+00 7.910670096922999939e+00 5.894171114580999848e+00 6.025645676205999557e+00 6.092459308526000150e+00 8.083475703600000173e-02 3.977679094318999908e+00 6.000368796118999981e+00 1.923136187227000082e+00 6.011772939821000250e+00 3.932151030891000154e+00 1.895650248618999889e+00 6.041228170581000256e+00 5.581699289920000417e+00 4.072037297509999654e+00 4.044152297951000286e+00 5.625908646218999998e+00 5.950226011708999785e+00 6.124840732691000156e+00 3.852331950212000145e+00 6.155200469550999642e+00
3.628202240199999984e-02 2.906014054399999949e-02 3.971304101619999916e+00 4.029445799638000203e+00 7.881194170877000360e+00 7.964676852934999829e+00 3.794847365320999977e+00 4.188053451057999865e+00 5.274602962799999906e-02 4.007681627343999686e+00 4.077736432540000067e+00 4.024776959521999764e+00 2.832249392339999949e-01 9.377742873000000090e-02 7.759777779023999678e+00 7.921347707469999833e+00 4.091649797759999707e+00 1.077949431809999969e-01 7.731339631004000346e+00 3.807209637120999801e+00 3.999505124730000194e+00 4.043762517562999648e+00 4.304620756400000248e-02 3.924937429666000011e+00 2.077776806351999905e+00 2.191523194370000205e+00 2.159580675896000113e+00 2.032378001916999910e+00 1.971870784260999931e+00 6.136225006403999593e+00 1.791581834749000013e+00 6.206971977561999587e+00 1.905215072374000007e+00 2.004225696034000137e+00 5.922481445626999630e+00 5.868123191613999978e+00 6.235407971006000416e+00 1.789488752485000056e+00 1.896060653931000095e+00 6.044526354914999899e+00 1.990489435325000001e+00 5.935957197831999821e+00 5.887757802281000430e+00 5.825113508733999801e+00 2.064338534093999922e+00 6.048292733195999915e+00 6.035699197908999558e+00 6.004376683830000339e+00 1.487248910976000094e+00 1.988472237517999952e+00 7.897841350401000327e+00 1.311772617699999942e-02 2.161886868448000154e+00 2.255616319422999894e+00 1.861133767821000040e+00 9.703144937499999512e-02 1.875135331320000098e+00 2.252910380362000087e+00 1.864617459671999988e+00 3.962136916349999982e+00 7.951457082978000024e+00 1.794677594256999908e+00 5.757729565324999577e+00 2.038328121906999968e+00 7.973911059238999677e+00 6.129705502061000288e+00 1.868782673082000079e+00 5.991064711167999768e+00 7.910485912048000223e+00 2.919638319500000162e-02 5.983957184869000301e+00 2.091632232700999960e+00 1.779120331377000097e+00 4.055954606050000244e+00 2.066621837208999946e+00 2.061319250206000042e+00 6.302078293981000279e+00 4.024420743729000272e+00 7.941526745425999678e+00 6.050996218262000070e+00 5.948355989358000251e+00 1.793638563255999907e+00 4.115647648101999678e+00 5.731321623191999670e+00 6.281277608088999820e+00 1.549688594995999980e+00 7.976033860152000443e+00 3.904115620820999943e+00 2.215065599403999830e+00 1.856538154300999999e+00 6.034792950445000415e+00 7.935553188973999639e+00 2.157361866793999994e+00 5.826432744125000340e+00 1.829694742580000089e+00 4.098012541651000262e+00 3.961965118012999998e+00 2.221949681068000171e+00 6.216995182419999821e+00 5.544198405193999868e+00 7.805021602585999752e+00 5.850315861280999563e+00 6.004803326720000278e+00 6.119829419763999745e+00 3.640471973900000213e-02 4.002911904628000173e+00 5.955230979219000353e+00 2.028284730524000157e+00 6.102581413792999676e+00 3.956522212338999811e+00 1.896169478018000065e+00 6.029670625312999910e+00 5.708583071826000221e+00 3.971371275865999806e+00 4.061905772471999576e+00 5.668322130493000266e+00 5.887640678810000416e+00 6.133635967856999827e+00 3.909186287402000026e+00 6.143371847663000374e+00
1.321465684800000005e-02 5.424305571299999768e-02 3.928686115502999954e+00 4.017914413567000409e+00 7.904892079514000081e+00 7.916564658581999758e+00 3.881807498595999828e+00 4.187840366807000336e+00 8.711780496300000620e-02 3.924597317869999991e+00 4.142253145853000085e+00 4.018578957027999721e+00 2.835734609130000083e-01 7.958757412407999610e+00 7.792466745117000215e+00 7.891536144842000056e+00 4.139883614580000426e+00 9.103174236800000430e-02 7.777447635979999774e+00 3.768808989496000184e+00 4.016949326645000262e+00 3.959698965449999886e+00 7.192631468999999972e-03 3.993349935304999931e+00 2.076170177029999842e+00 2.181109026101999859e+00 2.164877910252000159e+00 2.028774894477999968e+00 1.996437790040000104e+00 6.145533913040000407e+00 1.777734001255999896e+00 6.245109416738999997e+00 1.894183630659000084e+00 2.038633830150999859e+00 5.952207589337000115e+00 5.850476343197000162e+00 6.247751676170000046e+00 1.778960993401000001e+00 1.930550514974000098e+00 6.087224196768000084e+00 2.006425926894999989e+00 5.909332083385000267e+00 5.880725179690999838e+00 5.812204801216999783e+00 2.050091811596999936e+00 6.029199084005999687e+00 6.013770716605000288e+00 6.038747373658000406e+00 1.599718950890000047e+00 1.987975590330000042e+00 7.916863574475000220e+00 3.245159129999999892e-02 2.139363693273999889e+00 2.245241210326999859e+00 1.846987331006999966e+00 2.609871834899999896e-02 1.874526776246000059e+00 2.192857790631999926e+00 1.792007274631000069e+00 4.006403669961000169e+00 4.540533599600000275e-02 1.820356320326999899e+00 5.762834086816999601e+00 2.054961765758000158e+00 7.901912637178000409e+00 6.185585907840000175e+00 1.829989186646000077e+00 5.944722290889999705e+00 2.169005121900000055e-02 7.971970839322000124e+00 5.934673315983999942e+00 2.118058224749999940e+00 1.790960343032000024e+00 3.970925447717999823e+00 2.129963939871999834e+00 2.021429115855000180e+00 6.254447861991000224e+00 4.047529542979000361e+00 7.903885932732999997e+00 6.042266614545999559e+00 5.926164713376000037e+00 1.776430431110000097e+00 4.003583526355000366e+00 5.741512891063999646e+00 6.283326171569999730e+00 1.636866571027000061e+00 7.905871201400000103e+00 3.952638836130999866e+00 2.197989956818999779e+00 1.890003205740000025e+00 6.115506193378999811e+00 2.123711642299999994e-02 2.193126557069000171e+00 5.769355579588999916e+00 1.905398035057999984e+00 4.046976247496999690e+00 3.943188015195000062e+00 2.149875319324999978e+00 6.148590619582999572e+00 5.490010091741000409e+00 7.775065126360000356e+00 5.798132550845999766e+00 6.003716662687000216e+00 6.117678249325000372e+00 7.970765926692999770e+00 4.002870998258000412e+00 5.923545807446999767e+00 2.134041524673000012e+00 6.183963539286000177e+00 3.944758085410999815e+00 1.880244175752999958e+00 6.035718567091000075e+00 5.868023227609000081e+00 3.875845373191999954e+00 3.995659518779000052e+00 5.751941628580000021e+00 5.869137131378000305e+00 6.153423842271999789e+00 3.903826957434000100e+00 6.125740820721000013e+00