-3.056826811680000174e+04
-3.056681736180000007e+04
-3.056616935139999987e+04
-3.056614732219999860e+04
-3.056580191619999823e+04
-3.056596367299999838e+04
-3.056573362519999864e+04
-3.056620127570000113e+04
-3.056626988480000000e+04
-3.056601991370000178e+04
-3.056556663169999956e+04
-3.056521614720000071e+04
-3.056542364079999970e+04
-3.056515439509999851e+04
-3.056464558659999966e+04
-3.056450677139999971e+04
-3.056395955770000000e+04
-3.056432174229999873e+04
-3.056362285079999856e+04
-3.056330054989999917e+04
-3.056157721490000040e+04
-3.056128262800000084e+04
-3.056183231660000092e+04
-3.056187625489999846e+04
-3.056216107719999854e+04
-3.056126212160000068e+04
-3.056248935999999958e+04
-3.056166880680000031e+04
-3.056226524530000097e+04
-3.056295254940000086e+04
-3.056256869160000133e+04
-3.056242627020000145e+04
-3.056315952850000031e+04
-3.056305036299999847e+04
-3.056337174859999868e+04
-3.056363137070000084e+04
-3.056376465670000107e+04
-3.056501458899999852e+04
-3.056509705029999895e+04
-3.056524349689999872e+04
-3.056560580940000000e+04
-3.056560822380000172e+04
-3.056582968310000069e+04
-3.056547275309999895e+04
-3.056602702169999975e+04
-3.056651424480000060e+04
-3.056660924660000092e+04
-3.056605594790000032e+04
-3.056613358119999975e+04
-3.056649774569999863e+04
-3.056660054250000030e+04
-3.056663049310000133e+04
-3.056668625130000146e+04
-3.056656149139999980e+04
-3.056638921480000135e+04
-3.056648764120000124e+04
-3.056619579499999963e+04
-3.056581124479999926e+04
-3.056538678920000166e+04
-3.056560404189999826e+04
-3.056595480239999961e+04
-3.056583873669999957e+04
-3.056558761239999876e+04
-3.056498450389999925e+04
-3.056463820100000157e+04
-3.056434987570000158e+04
-3.056469576429999870e+04
-3.056448152660000051e+04
-3.056440865080000003e+04
-3.056305354380000063e+04
-3.056290010160000020e+04
-3.056244012849999854e+04
-3.056253809929999989e+04
-3.056242520539999896e+04
-3.056225155639999866e+04
-3.056176713490000111e+04
-3.056220171439999831e+04
-3.056224420729999838e+04
-3.056232561699999860e+04
-3.056250531290000072e+04
-3.056283486249999987e+04
-3.056251912050000101e+04
-3.056305049119999967e+04
-3.056374977569999828e+04
-3.056426781069999925e+04
-3.056351085980000062e+04
-3.056350848140000016e+04
-3.056442715049999970e+04
-3.056526306789999944e+04
-3.056564465170000040e+04
-3.056556010529999912e+04
-3.056576753349999854e+04
-3.056610951879999993e+04
-3.056583576059999905e+04
-3.056583004100000107e+04
-3.056578391879999981e+04
-3.056613413009999931e+04
-3.056638073789999908e+04
-3.056637566679999873e+04
-3.056639616020000176e+04
-3.056653911670000161e+04
-3.056639617839999846e+04
-3.056675550959999964e+04
-3.056653787169999850e+04
-3.056609255209999901e+04
-3.056638086639999892e+04
-3.056639641720000145e+04
-3.056584693390000029e+04
-3.056578401870000016e+04
-3.056606405390000145e+04
-3.056619760049999968e+04
-3.056551376080000045e+04
-3.056550224589999925e+04
-3.056500889180000013e+04
-3.056463574199999857e+04
-3.056458639730000141e+04
-3.056415881040000022e+04
-3.056410251110000172e+04
-3.056363660209999944e+04
-3.056321672509999917e+04
-3.056425677110000106e+04
-3.056319839240000147e+04
-3.056244339559999935e+04
-3.056268628539999918e+04
-3.056286941400000069e+04
-3.056274276649999956e+04
-3.056239399689999846e+04
-3.056204088350000166e+04
-3.056179074200000105e+04
-3.056135013030000118e+04
-3.056209378750000178e+04
-3.056291257129999940e+04
-3.056341093420000107e+04
-3.056350868880000053e+04
-3.056299506610000026e+04
-3.056421392460000061e+04
-3.056454762480000136e+04
-3.056494279789999928e+04
-3.056484583980000025e+04
-3.056435174900000129e+04
-3.056473851379999905e+04
-3.056529891180000050e+04
-3.056530383849999998e+04
-3.056539210919999823e+04
-3.056589067200000136e+04
-3.056596093889999975e+04
-3.056620829900000172e+04
-3.056660925420000058e+04
-3.056659148600000117e+04
-3.056594564259999970e+04
-3.056635353989999930e+04
-3.056652541339999880e+04
-3.056628125430000000e+04
-3.056667230249999920e+04
-3.056625693749999846e+04
-3.056660699480000039e+04
-3.056604682479999974e+04
-3.056584395130000121e+04
-3.056599990039999830e+04
-3.056553673880000133e+04
-3.056549884069999825e+04
-3.056601666050000131e+04
-3.056558756480000011e+04
-3.056489854410000044e+04
-3.056497375670000110e+04
-3.056450936119999824e+04
-3.056437921890000143e+04
-3.056412664579999910e+04
-3.056498345319999862e+04
-3.056426867349999884e+04
-3.056307366420000108e+04
-3.056271916219999912e+04
-3.056433245040000111e+04
-3.056291655689999970e+04
-3.056217593290000150e+04
-3.056146931849999964e+04
-3.056136026829999901e+04
-3.056264914280000085e+04
-3.056158375119999982e+04
-3.056298193779999929e+04
-3.056293007800000123e+04
-3.056232846960000097e+04
-3.056273757439999827e+04
-3.056290364359999876e+04
-3.056312782389999848e+04
-3.056399587149999934e+04
-3.056311336270000174e+04
-3.056390349029999925e+04
-3.056429404470000009e+04
-3.056513346670000101e+04
-3.056542612450000161e+04
-3.056529271579999840e+04
-3.056554602119999981e+04
-3.056561810590000096e+04
-3.056555118199999924e+04
-3.056545340270000088e+04
-3.056602259970000159e+04
-3.056561968500000148e+04
-3.056574261530000149e+04
-3.056630116009999983e+04
-3.056639777619999950e+04
-3.056682085260000167e+04
-3.056644217199999912e+04
-3.056575799410000036e+04
-3.056598419970000032e+04
-3.056649454400000104e+04
-3.056601147050000145e+04
-3.056619300400000066e+04
-3.056613758930000040e+04
-3.056586244250000163e+04
-3.056585305009999865e+04
-3.056557786800000031e+04
-3.056484643910000159e+04
-3.056475545179999972e+04
-3.056508621549999953e+04
-3.056462648479999916e+04
-3.056483862360000057e+04
-3.056435605410000062e+04
-3.056410791850000169e+04
-3.056394352979999894e+04
-3.056399542469999869e+04
-3.056425339130000066e+04
-3.056331603220000034e+04
-3.056261384600000019e+04
-3.056218000319999919e+04
-3.056198890649999885e+04
-3.056245440569999846e+04
-3.056264159270000164e+04
-3.056252757339999880e+04
-3.056248529540000163e+04
-3.056297098639999967e+04
-3.056290947880000022e+04
-3.056271440090000033e+04
-3.056256732810000176e+04
-3.056225911370000176e+04
-3.056296664339999916e+04
-3.056267603919999965e+04
-3.056383111199999985e+04
-3.056442304380000132e+04
-3.056495322700000179e+04
-3.056479723050000030e+04
-3.056579432499999893e+04
-3.056524764290000167e+04
-3.056530683639999916e+04
-3.056534828639999978e+04
-3.056511025449999943e+04
-3.056625407949999862e+04
-3.056588038769999912e+04
-3.056589265040000100e+04
-3.056660119390000182e+04
-3.056639393389999896e+04
-3.056589767940000092e+04
-3.056634862680000151e+04
-3.056616747889999897e+04
-3.056641451049999887e+04
-3.056615636779999841e+04
-3.056582682399999976e+04
-3.056598910099999921e+04
-3.056566122650000034e+04
-3.056599347470000066e+04
-3.056590872310000123e+04
-3.056571215179999854e+04
-3.056608087159999923e+04
-3.056575048700000116e+04
-3.056490595739999844e+04
-3.056466580919999979e+04
-3.056463611989999845e+04
-3.056529317720000108e+04
-3.056466709690000062e+04
-3.056419296069999837e+04
-3.056381406979999883e+04
-3.056336093220000112e+04
-3.056291392139999880e+04
-3.056231888320000144e+04
-3.056209808409999823e+04
-3.056318559800000003e+04
-3.056334642579999854e+04
-3.056276070020000043e+04
-3.056337133929999982e+04
-3.056382357380000030e+04
-3.056318198720000146e+04
-3.056210840230000031e+04
-3.056187162309999985e+04
-3.056219643480000013e+04
-3.056266057139999975e+04
-3.056269176629999856e+04
-3.056349463209999885e+04
-3.056336224550000043e+04
-3.056321904150000046e+04
-3.056380975570000010e+04
-3.056503350589999900e+04
-3.056464487849999932e+04
