-1.477385131729999912e-01 -5.236542814200000062e-02 -3.070747386699999859e-02 -1.546823890800000031e-02 -8.083775655000000060e-03 -2.353272412699999871e-01 1.484587969670000118e-01 5.110163062200000217e-02 3.306434672300000155e-02 -2.112605457560000066e-01 3.799044194949999786e-01 -3.213845918299999826e-02 -2.941653230000000185e-03 -1.246949569150000020e-01 -5.048327358999999889e-03 4.209782982799999823e-02 1.023748709809999963e-01 -9.743907386999999323e-03 1.096548360399999950e-01 1.174604602980000023e-01 -1.461683742899999930e-02 7.248554949600000130e-02 -1.537834213560000107e-01 1.671564184369999928e-01 -4.667517395419999993e-01 4.784314022410000034e-01 3.161978459990000268e-01 1.622634272980000014e-01 -3.855610789289999896e-01 -1.245220794530000064e-01 3.356412235700000080e-02 -6.923206479719999917e-01 -5.119711973999999804e-02 -1.476770478810000009e-01 1.750769283860000025e-01 1.305913600359999982e-01 6.657531275329999776e-01 -1.837762709699999886e-02 -1.112772453390000055e-01 -2.564307650850000120e-01 -5.980204727240000517e-01 -8.531502788599999720e-02 -7.996954446800000338e-02 -2.498945124300000140e-02 1.044026252816000033e+00 1.634128139999999896e-01 7.673573348419999718e-01 -1.043083967712000071e+00 -1.922737015529999982e-01 -1.119826149049999997e-01 -5.872422525839999796e-01 -1.462108264989999962e-01 2.320970981799999958e-02 7.888111835399999605e-02 -1.389126574199999950e-02 3.039869972070000093e-01 5.789711792599999685e-02 -6.584921417000000159e-03 -1.106830864749999976e-01 8.375446699440000087e-01 2.322806096810000054e-01 1.484824995000000036e-01 1.047245867699999992e-02 -9.596021551699999985e-02 8.306223230479999886e-01 2.162226840199999930e-02 2.180170414810000123e-01 1.419661126979999966e-01 9.056385191129999734e-01 -5.656055216480000425e-01 1.916504680499999877e-02 -3.849117324399999734e-02 -5.780689941500000151e-02 -3.181893071019999963e-01 -8.740786906799999367e-02 1.384816163300000083e-02 4.096879877410000148e-01 -1.270443432630999903e+00 -9.138667422400000018e-02 2.333259294589999921e-01 -2.662741583300000034e-02 3.511467407319999734e-01 -1.705976452630000084e+00 1.069797009929999987e-01 5.803126357999999901e-03 8.075990409399999570e-02 -6.572286941100000113e-02 5.247412615900000077e-01 5.607967322500000129e-02 1.733296436339999969e-01 5.223781582900000053e-02 5.981489133049999740e-01 -1.761736758050000129e-01 3.268446325439999800e-01 1.343958704419999928e-01 -8.109399259820000427e-01 -1.043309754952999935e+00 4.939190758820000138e-01 5.935507411899999808e-02 3.195581578030000092e-01 6.894813450090000462e-01 3.085865139539999968e-01 6.333535600999999626e-02 3.621983721450000027e-01 9.021684210620000144e-01 -1.177447707840000024e-01 1.547534703769999909e-01 -2.149096753570000073e-01 1.270533486429999970e-01 -8.611724820289999860e-01 1.013404285090000051e-01 2.254591091260000069e-01 -2.142702657120000020e-01 -2.176983878980000009e-01 -3.248564730149999802e-01 -1.894235113080000033e-01 8.879236317800000278e-02 1.258532078600000104e-01 -1.181995697427999925e+00 -1.050101574409999933e-01
-3.720023089360000035e-01 -4.711541313900000083e-02 -1.733607819930000071e-01 -3.042818774999999851e-02 4.133031880299999766e-02 -5.641270427879999660e-01 4.643884796269999726e-01 1.047545421330000059e-01 1.173980044490000041e-01 -7.209811458770000181e-01 1.128292066303000052e+00 -1.398105689190000112e-01 -2.029836725000000106e-02 -2.867816429300000247e-01 6.451016862899999760e-02 9.927108330299999617e-02 1.781324055780000026e-01 -1.207029081699999978e-02 2.707436515130000054e-01 2.058132500569999912e-01 -7.975622340700000423e-02 9.246538466400000544e-02 -3.547821588200000265e-01 3.939856564379999870e-01 -1.398201390589000059e+00 9.985889542129999796e-01 4.005620497490000043e-01 5.080318123100000527e-01 7.291435759430000552e-01 -2.287930427980000014e-01 3.187423120769999896e-01 -1.582389931423999974e+00 -1.458293857219999934e-01 -3.771550110210000195e-01 7.155879841990000489e-01 4.943894514650000183e-01 1.350843685574000030e+00 -7.706674336100000078e-02 3.510640266469999826e-01 -5.326828771239999760e-01 -1.333506336309999929e+00 2.094333795680000110e-01 -2.728075447830000111e-01 8.055265461999999710e-03 2.533092817972999899e+00 5.092110924739999822e-01 1.786282172161000048e+00 -2.331233152144999821e+00 -4.972774273300000214e-01 -4.968259222020000032e-01 -5.219066705670000195e-01 3.173667900859999946e-01 9.382732436599999781e-02 1.762734331570000035e-01 -4.906813818800000171e-02 5.844778008490000287e-01 1.844076802530000003e-01 -5.824107175999999886e-02 -4.639931030750000240e-01 1.304464930910000042e+00 -3.743684427039999929e-01 3.278421555580000035e-01 -3.395954322499999956e-02 -1.963563274690000027e-01 -8.742143926190000247e-01 3.902505763400000022e-02 4.653724590039999831e-01 2.422557727759999946e-01 1.119958506056000003e+00 -1.395577618988999902e+00 -1.578776494500000113e-02 -6.140756791600000125e-02 -1.272222884920000130e-01 -5.586202325539999514e-01 -1.757161171889999873e-01 -6.717008673000000353e-03 9.700092630369999691e-01 -2.045638512267000220e+00 -1.718488196530000012e-01 3.905211713599999745e-01 -4.372038997199999971e-02 6.448129056839999595e-01 -2.415600290261000094e+00 2.716379914870000190e-01 3.274708513099999774e-02 9.310575202199999900e-02 -1.146257143963999914e+00 1.014112851204000076e+00 1.787533313050000128e-01 3.343396070749999893e-01 1.544998099759999910e-01 6.745341212309999834e-01 -4.352626207690000193e-01 9.696084116619999582e-01 1.085235120779999979e-01 -1.545076541538999981e+00 -1.483086452353999940e+00 1.044592203791000040e+00 1.655288450609999906e-01 7.390826378849999490e-01 5.366524759959999669e-01 6.714327155279999904e-01 1.089070549010000000e-01 8.184259634339999812e-01 1.074899036239000072e+00 -2.276888603270000033e-01 3.644666466340000244e-01 -5.339142143280000141e-01 3.194866390330000083e-01 -1.224308982481000063e+00 2.304845264229999913e-01 4.732207605939999784e-01 -4.579713706299999854e-01 2.585287207070000037e-01 -7.966533279290000102e-01 -5.704427430649999797e-01 1.862784725430000066e-01 2.557477104990000250e-01 -1.564561001478000035e+00 -3.638552676649999817e-01
-4.485341998530000263e-01 1.594313214399999956e-01 -4.040837115529999912e-01 -4.450243661199999867e-02 2.190375533270000064e-01 -7.425640449899999496e-01 8.301362393250000249e-01 1.644136144200000066e-02 2.082594991520000105e-01 -1.324175673565000100e+00 1.802286968992999894e+00 -2.491637959580000061e-01 -5.648436599699999811e-02 -3.590087536439999782e-01 2.027298876249999937e-01 4.805836420600000103e-02 9.789153826799999736e-02 1.156602573500000071e-02 3.624885964019999851e-01 6.625875724999999439e-02 -1.663413374949999912e-01 -1.828814362950000050e-01 -3.769816068479999727e-01 5.875125877900000404e-01 -1.428536944625000027e+00 1.082692532292000021e+00 7.397588969730000130e-01 7.158056860960000378e-01 2.159046984341999931e+00 -7.647685014470000375e-01 -2.293517146169999910e-01 -1.535300124011999889e+00 -1.733519389809999867e-01 -7.573667789669999983e-01 -5.144638627200000258e-02 1.104426860010000039e-01 1.340773250293000096e+00 2.129706444599999832e-02 6.284960892500000007e-01 -6.839931988759999637e-01 -1.899060899910000044e+00 2.481547023510000116e-01 -1.103219299969999956e-01 -6.362170883300000135e-02 3.205647813875999841e+00 6.118564961950000436e-01 1.794493820030000020e+00 -2.216695976602999885e+00 -6.750084886570000275e-01 -8.828888924169999708e-01 9.091449470139999489e-01 1.222319548331999961e+00 1.534721064400000057e-01 1.141066040389999980e-01 -1.590176518120000049e-01 4.362020770899999872e-02 2.697967569879999861e-01 -6.067763925200000269e-02 -7.933277310230000268e-01 2.563683383490000245e-01 -1.159239850715999998e+00 1.914378044320000083e-01 -1.642552874140000008e-01 -2.548452349709999787e-01 -3.335476113604999959e+00 1.099654822399999919e-02 3.732549808030000138e-01 -6.205955194599999808e-02 -5.967946318169999875e-01 -8.586746210950000346e-01 -6.210589571100000317e-02 -1.007537317849999947e-01 -2.091385726149999902e-01 -2.038138545210000097e-01 -1.497580172959999956e-01 -1.350218846150000040e-01 7.291163336349999469e-01 2.466379164299999927e-01 1.660252687369999924e-01 -1.271592136860000000e-01 4.866062793099999728e-02 8.169461793540000460e-01 8.874089843750000428e-01 2.051782886459999899e-01 1.313557982419999992e-01 2.194148286000000090e-03 -1.646093987136999948e+00 -4.182235690000000138e-04 3.524409053359999766e-01 3.883958064249999897e-01 3.663588705729999839e-01 -5.466250406610000390e-01 -6.209105777129999559e-01 1.451623572121000016e+00 -4.001338104200000134e-01 -6.004262155389999966e-01 -3.487997719900000071e-01 1.007169428662000099e+00 -1.968210174470000073e-01 4.863971766519999962e-01 -9.724037135880000404e-01 6.290995320319999751e-01 4.895114486700000156e-02 8.510448959309999672e-01 -9.296115164320000179e-01 -1.987652610149999999e-01 3.440761913059999788e-01 -5.306446507540000246e-01 3.238866648550000060e-01 1.439664262910000103e-01 1.933326511369999889e-01 3.311823615080000116e-01 -3.899447980949999892e-01 1.386263542338000088e+00 -5.321820404189999687e-01 -8.601574206850000071e-01 1.133701740779999995e-01 2.305177215729999896e-01 7.966901816439999617e-01 -4.608809820240000188e-01
-3.825836464549999816e-01 3.183306318019999970e-01 -5.458922179130000218e-01 -1.179521981840000039e-01 3.116002165810000113e-01 -8.904579028319999923e-01 1.107999836587999942e+00 7.890546809999999600e-04 2.538580038820000273e-01 -1.504333876485999921e+00 1.998896984868000049e+00 -2.116478152609999885e-01 -2.969143383799999897e-02 -5.576990241100000523e-01 2.806133157990000071e-01 -1.280118106110000042e-01 1.496623898059999958e-01 -3.536254733099999936e-02 4.048060883610000160e-01 -9.921245198299999402e-02 -1.284981196870000064e-01 -6.870588896489999708e-01 -3.766802906019999786e-01 8.245950256380000232e-01 -1.248804255585000078e+00 4.231653030990000230e-01 9.011273483210000546e-01 4.635111508170000061e-01 -6.921080474709999653e-01 -1.138911876277999946e+00 -9.657970560240000113e-01 -8.210872418389999483e-01 -4.224418633629999920e-01 -6.470987514460000423e-01 1.274058888112000076e+00 2.449046747789999923e-01 1.649361808819000075e+00 -1.453537712040000041e-01 -2.316930206779999890e-01 3.850291587799999776e-02 -1.204557860183999907e+00 3.355882727530000165e-01 5.131852014469999723e-01 -7.805041668100000385e-02 2.154108060581000128e+00 6.961571248290000513e-01 8.836383995430000526e-01 -1.592117400151999984e+00 -5.917474529830000218e-01 -1.211692233219999970e+00 6.463436959849999663e-01 4.647377731430000214e-01 1.579182243770000105e-01 -3.062332276140000142e-01 -2.267275505059999918e-01 -5.592824386150000437e-01 2.835194699399999907e-01 -5.731289862800000023e-02 -8.648826729040000050e-01 -2.026084754639999874e-01 -2.324250441129999956e-01 7.387499704599999328e-02 -3.206005698389999825e-01 -5.572894691109999687e-01 4.458588313369999945e-01 4.349919647659999944e-01 -8.089998133999999619e-03 -5.154753682079999955e-01 -7.695071939869999600e-01 2.272957183550000093e-01 -2.482492914649999938e-01 -8.039469139299999789e-02 -2.686956767700000026e-01 3.002436575490000092e-01 1.106635692630000001e-01 -2.778226048079999733e-01 6.365829905900000085e-02 9.942099929290000304e-01 3.699089401810000122e-01 -8.231813741129999640e-01 9.296015183399999882e-02 6.251996130670000040e-01 1.027666361444999898e+00 1.258493325270000074e-01 3.951864470999999664e-03 1.785086295749999941e-01 4.000068924979999774e-01 -3.911754909160000127e-01 4.069363834010000236e-01 4.399706968339999746e-01 6.795382062679999891e-01 -8.569860607639999683e-01 -7.756940150059999928e-01 1.302622030028999900e+00 -7.273399627180000548e-01 2.154970486710000022e-01 -4.396183413600000117e-02 4.146143526619999742e-01 -7.785108282289999737e-01 -2.688478372740000233e-01 -5.777750265240000349e-01 1.695306100029999874e-01 -2.424804114920000031e-01 7.043796700790000420e-01 -6.372610802160000310e-01 -4.585901458100000161e-02 8.567777415199999413e-02 -2.022486575080000015e-01 3.413838393320000053e-01 9.196099897210000540e-01 9.319981798800000550e-02 -1.766932401709999934e-01 1.933258543599999935e-02 1.001871670824000082e+00 1.824211506099999991e-01 -9.403409280019999761e-01 -1.479561368629999929e-01 2.987717970499999959e-02 1.141532836274000040e+00 -5.853719761990000547e-01
-2.869709357560000229e-01 3.579529718189999876e-01 -5.776195880810000016e-01 -2.174315873529999998e-01 2.997332639240000152e-01 -9.045164326069999872e-01 1.158240025498000092e+00 1.709831828500000053e-02 2.927901209200000077e-01 -1.091997166058999991e+00 1.399167126540000083e+00 -4.815312386799999733e-02 5.767589260500000092e-02 -7.944881817879999586e-01 3.292097574050000253e-01 -3.064824045749999781e-01 3.240634555329999777e-01 -1.631551716580000033e-01 4.575934495830000226e-01 -2.532015614540000237e-01 4.048013500599999953e-02 -9.591474895160000402e-01 -3.614242387389999811e-01 7.796892761639999669e-01 -1.135161532027999964e+00 -8.172813971669999900e-01 3.853311761889999798e-01 -1.832567573899999969e-01 -1.292218102721000017e+00 -7.277807670220000080e-01 -9.300668316269999902e-01 2.252666707260000123e-01 -4.765636246159999923e-01 -2.845955792400000073e-01 2.364602960622999905e+00 4.557204421109999903e-01 1.506080927446000084e+00 -9.052271451799999424e-02 -1.485467765350000080e-01 1.175452168012000032e+00 7.686095818599999463e-01 1.937616668740000103e-01 1.004119743059000092e+00 -2.106813395100000028e-02 6.058686988999999710e-03 6.459577143829999812e-01 -1.879240745638000032e+00 -1.873917369220000073e-01 -5.971177550100000009e-02 -1.293495838476000026e+00 -4.303296183609999770e-01 -7.396557315330000160e-01 1.058197400930000059e-01 -7.023514441899999516e-01 -1.597157119360000099e-01 -5.003280089880000059e-01 2.842158758530000107e-01 -1.186971041980000030e-01 -6.258500845659999978e-01 -1.016379590529999932e-01 5.159594849730000377e-01 1.329137081500000005e-02 -3.533465731129999954e-01 -3.726895349350000108e-01 3.084195751459000157e+00 6.467088948389999592e-01 -4.118375062619999971e-01 -6.521711523100000019e-01 3.884949016190000215e-01 8.340695448120000188e-01 -4.515320079560000144e-01 9.883602480799999479e-02 -2.519744526320000233e-01 2.675253459029999781e-01 4.061854809689999790e-01 -3.332963387969999913e-01 -4.929276916629999894e-01 1.146507112560000013e-01 2.400378248879999898e-01 -9.538072876600000027e-01 1.641514025300000110e-02 1.936691809670000042e-01 -8.948302218260000274e-01 6.920506642099999439e-02 -3.589272534319999930e-01 4.428774602539999883e-01 1.885101094126000021e+00 6.834733707899999511e-02 2.440325392930000059e-01 5.316352238789999740e-01 7.382687066290000155e-01 1.448565603299999983e-02 -6.525263624520000194e-01 3.768818708539999895e-01 -3.475000574650000118e-01 3.537396727870000257e-01 2.182874177149999873e-01 -3.194891946110000047e-01 -9.926479771530000162e-01 -9.094886559460000353e-01 2.091615076659000039e+00 -4.309302750669999904e-01 -5.533961501490000101e-01 3.817225857709999892e-01 8.944626596160000220e-01 5.734316179699999738e-02 -2.976754798069999874e-01 3.392271051699999873e-01 4.424340173779999774e-01 4.848427762099999927e-01 8.010760228600000143e-02 -5.452522704750000226e-01 5.840398836779999714e-01 -6.122139923439999798e-01 8.345319737919999481e-01 -5.271938853840000272e-01 -4.700395022600000194e-01 -3.151976721329999842e-01 -6.046965487900000102e-01 -6.122757902350000059e-01
-2.464888106260000045e-01 4.272367076190000112e-01 -5.788320120900000143e-01 -2.375183782660000020e-01 3.356474527569999755e-01 -6.823491066850000397e-01 1.067221593720999895e+00 -1.417477467209999897e-01 3.913261628549999926e-01 -7.298114906170000138e-01 5.767135730139999472e-01 5.897131929899999958e-02 4.420665519699999713e-02 -7.988099742650000001e-01 3.812372072369999976e-01 -3.175555114420000047e-01 3.363764364640000060e-01 -2.258048860609999930e-01 4.920887229720000144e-01 -4.068364131230000069e-01 1.396522904020000011e-01 -7.843841166670000309e-01 -2.236873312640000055e-01 4.216390876689999900e-01 -5.523207650079999809e-01 -1.830041105470999963e+00 -3.490947120569999895e-01 -9.590515586779999602e-01 -3.851218465449999795e-01 -9.524948807699999687e-02 -5.924200041389999782e-01 1.182775107607000109e+00 -2.163940483940000048e-01 4.276252221030000245e-01 1.152148911622999927e+00 2.719108856799999918e-01 5.950082835850000196e-01 1.299290590280000046e-01 6.750785217389999593e-01 1.749186284170999972e+00 1.210255652991000019e+00 -5.949929030020000287e-01 7.447034017910000303e-01 9.469640571300000365e-02 -1.633184911917000104e+00 6.424023221499999825e-02 -2.008439880929000054e+00 1.658460754270000059e+00 5.973295623200000071e-01 -7.878824397460000295e-01 -5.343086348209999947e-01 -6.644011998219999660e-01 7.393915964800000518e-02 -6.498568411309999515e-01 -7.718980624999999957e-03 -2.076650824309999865e-01 2.301062311850000097e-01 -2.344843622749999967e-01 -2.344087576209999968e-01 -4.624606088709999896e-01 5.350531238710000137e-01 3.414391344900000180e-02 1.549674048900000038e-02 -3.520308742600000013e-02 1.589674784130000074e+00 5.434078403700000059e-01 -5.275255849550000153e-01 -4.112031154160000201e-01 4.220775268329999830e-01 9.943008125419999788e-01 -5.602513249439999843e-01 2.829070228700000245e-01 -1.546716304549999865e-01 -4.789616581080000102e-01 4.680946591499999809e-01 -2.569918849039999897e-01 -7.185223310280000053e-01 2.612270865319999968e-01 -3.947429690079999887e-01 -5.133819843350000411e-01 -1.127190737569999934e-01 -6.110935046899999834e-02 4.514585924899999769e-02 1.064079950899999953e-02 -3.883765338380000265e-01 7.241531818440000157e-01 1.211017021933000093e+00 -1.661950720479999921e-01 1.506919861199999995e-02 5.807043851169999549e-01 3.749258629189999859e-01 7.090828245169999988e-01 -5.456690929999999905e-03 -6.124480124150000204e-01 2.644405865469999783e-01 4.540138563580000119e-01 1.077497366280999902e+00 -6.847184173570000087e-01 -7.376002904959999551e-01 -8.826389102399999631e-01 7.961636322780000219e-01 -5.903414594329999820e-01 -4.412937039670000172e-01 -4.199857507000000212e-02 4.621885894780000115e-01 1.580259281680000127e-01 -5.060120545020000415e-01 8.389107034689999853e-01 4.677804165250000201e-01 1.507858396589999983e-01 1.305230862589999985e-01 -4.652473185139999745e-01 9.960744544309999560e-01 -1.516450285826000055e+00 7.146674216909999489e-01 4.227299674159999965e-01 -7.182668572499999460e-01 -3.912616536660000199e-01 -3.274926697209999960e-01 -2.062289679039999990e-01
-2.625851004629999874e-01 4.089587164080000226e-01 -5.274162084510000126e-01 -1.853555382950000108e-01 3.583142140319999780e-01 -2.769590949160000148e-01 9.430693192579999717e-01 -3.868195318870000232e-01 3.926270274859999798e-01 -5.708009256380000007e-01 -7.604160431499999706e-02 3.640324633800000320e-02 -1.666533003990000039e-01 -6.924955076090000272e-01 4.389708063050000164e-01 -1.554537084229999921e-01 1.575228639519999918e-01 -1.942197809629999938e-01 4.021941238000000252e-01 -3.741708884309999927e-01 1.518117829020000087e-01 -4.504068092469999951e-01 -5.240287257400000342e-02 1.203130942530000053e-01 1.882245488669999911e-01 -1.915044034204999912e+00 -9.172453978329999646e-01 -1.011724150597999916e+00 3.246582388613000081e+00 6.634355178430000333e-01 -1.569456539390000072e-01 1.397371520180000104e+00 2.645536117439999946e-01 1.246280525975999920e+00 -8.608989051980000529e-01 -2.436180162640000091e-01 -1.226747083241999992e+00 4.575821488499999812e-01 2.769230002425000059e+00 1.279587756641999974e+00 5.951061752930000281e-01 -1.530163422361999981e+00 1.023132799099999921e-02 2.642619951819999979e-01 -2.099296259785000007e+00 -1.124247168487999993e+00 -7.428776649460000492e-01 2.126744407282000093e+00 1.039051773308000026e+00 1.962665023250000085e-01 -1.594491651369999985e-01 6.823241327960000158e-01 8.209015934999999708e-02 -1.603547686769999925e-01 6.950028203100000468e-02 -3.792433774689999981e-01 7.274339930699999512e-02 -4.383826760019999824e-01 1.202524100359999987e-01 -5.381816719630000412e-01 7.792261684779999698e-01 9.087014097300000204e-02 5.091656283419999651e-01 1.766868668559999911e-01 -3.656735605851999971e+00 -7.480698071999999747e-03 -2.943508782440000249e-01 2.922373566200000064e-02 -2.022181307139999940e-01 5.756708742139999835e-01 -3.669180818850000247e-01 2.022987210159999938e-01 9.281424760900000570e-02 -9.923034786840000399e-01 3.294567271830000088e-01 -1.155807863350000048e-01 -6.481321318410000476e-01 9.991027021070000291e-01 -8.042738166339999939e-01 1.071110185230000067e-01 -1.451502335980000002e-01 -2.472081784609999888e-01 1.713635556450000097e+00 -2.171226534300000136e-02 -5.665400662000000254e-02 5.014593270689999827e-01 -1.842866998515999999e+00 -5.074864467140000057e-01 -1.845757793649999978e-01 3.808540896789999741e-01 5.343610446000000153e-02 5.984809320409999467e-01 6.050475745029999519e-01 -1.116695509834999989e+00 7.524023692839999500e-01 3.849474351330000044e-01 1.031426726392000059e+00 -7.575734704550000087e-01 -3.726712591720000023e-01 -3.046215469260000197e-01 -2.320620189235000019e+00 -2.535694262439999735e-01 1.253803442999999913e-02 -4.102292889999999970e-01 -8.048573077130000142e-01 2.871324371449999746e-01 -4.103146791230000145e-01 9.721629459659999473e-01 3.521609537479999941e-01 2.466241894990000016e-01 6.272634473099999997e-02 -5.721762301600000211e-02 1.275641881984000081e+00 -1.002201038149999945e+00 9.111839138900000579e-02 1.362811325393000095e+00 -4.651343038419999965e-01 -5.928368787200000156e-02 1.264827520974999953e+00 2.821703831710000165e-01
-1.725687299239999917e-01 1.045481018169999998e-01 -2.541875578200000207e-01 -1.358436826320000013e-01 2.673704613380000206e-01 2.252077886000000001e-02 8.238592704839999836e-01 -4.028633458190000183e-01 1.819424431249999918e-01 -3.785697163480000182e-01 -3.945243783469999932e-01 -9.691322066799999690e-02 -3.885786765159999767e-01 -7.057679016269999828e-01 3.332299786790000051e-01 -3.616235409699999903e-02 5.350746361000000006e-02 -1.624075359219999959e-01 2.605533918819999961e-01 -9.927004235000000051e-03 1.510004269240000085e-01 -2.189033695840000016e-01 -6.856165579700000678e-02 6.982504711799999986e-02 3.594936020000000232e-01 -9.581583109189999448e-01 -1.191168569518999965e+00 -2.686612476379999781e-01 1.480423510537000054e+00 4.044370468369999916e-01 1.054475267633000035e+00 8.143739087839999558e-01 5.062559843510000546e-01 1.441876697649999928e+00 -6.458379075100000033e-02 -7.146614809089999465e-01 -2.335316384031000059e+00 3.671935118610000215e-01 2.352321017221000066e+00 5.563546328259999507e-01 4.856829152150000106e-01 -1.126152054765999999e+00 -5.950463873189999475e-01 4.326998198820000141e-01 -1.594960335419000064e+00 -1.776146345689999961e+00 -5.798624236770000273e-01 1.446494161748999918e+00 1.335226850660000020e+00 1.088700770036000076e+00 -8.106477132599999857e-02 8.329415318230000143e-01 -2.016640172880000137e-01 1.942174575670000125e-01 9.475481678100000638e-02 -7.841280562760000183e-01 -1.672764456910000030e-01 -5.331267453269999956e-01 2.311434580120000082e-01 6.163538537930000061e-01 8.689953924390000362e-01 2.753309155409999764e-01 5.436093590480000071e-01 3.484375904349999997e-01 -1.832289724050000013e+00 -2.069282665759999973e-01 3.061980966299999996e-02 1.407775269890000069e-01 4.091456727130000082e-01 -7.608572767040000517e-01 -1.239263546599999981e-02 -1.516206737700000022e-02 4.083009451510000165e-01 -7.075766568119999933e-01 1.220324584409999968e-01 -6.356499971399999505e-02 -5.154433048550000063e-01 4.607113587230000085e-01 -4.101887197390000073e-01 4.363209241730000021e-01 -1.072756586629999981e-01 -2.961382522450000110e-01 -4.947844867569999860e-01 1.070217432629999993e-01 -3.843668477999999996e-03 5.617165410890000432e-01 -2.036883703597999862e+00 3.026078717580000244e-01 -4.340442537709999771e-01 -1.275396964269999989e-01 2.019633139600000155e-02 5.930638451799999933e-01 7.046832622940000235e-01 -8.417343851549999867e-01 8.747840316830000074e-01 -3.393737805300000021e-01 -5.259874899190000175e-01 -7.390227335060000069e-01 -1.018586461299999940e-01 4.125545442060000179e-01 -1.249020804578000021e+00 -2.229063952100000107e-02 3.871824315299999819e-01 -6.102964374699999528e-01 -8.498081937810000319e-01 2.217845977189999984e-01 -1.126192655210000032e-01 6.552285984310000089e-01 1.349264253699999916e-01 -2.728192162070000037e-01 -1.286485928199999906e-01 2.823687655170000199e-01 1.043391265904000109e+00 -5.020334475969999710e-01 -6.786969263709999867e-01 1.417410556127999932e+00 2.667358019759999976e-01 2.424245905090000042e-01 4.819108759510000173e-01 2.788282139470000254e-01
2.213399153899999958e-02 -2.911103334290000011e-01 2.086379215399999931e-01 -6.849947483399999870e-02 2.027789874610000098e-01 1.386718834129999911e-01 6.076638370870000028e-01 -3.799168656940000166e-01 -8.488491708800000035e-02 -1.217272384860000056e-01 -6.010731781450000533e-01 -2.158394724920000007e-01 -4.520353473839999747e-01 -4.810917473879999795e-01 9.177085735100000419e-02 2.879106493400000050e-02 1.889727749599999854e-02 -1.604560052269999870e-01 2.498062345610000123e-01 4.023066527829999850e-01 1.101127173680000043e-01 -9.680447847400000527e-02 -1.133364408009999991e-01 1.645859735790000111e-01 5.292387894619999811e-01 -1.304566425400000007e-01 -6.946611033840000005e-01 2.771868190699999790e-01 -1.080914392229999965e+00 -7.398108149040000248e-01 1.943547058762999935e+00 -7.769734166649999718e-01 1.130591593320000032e-01 1.222327141475000101e+00 1.381066289574000017e+00 -2.095259703729999978e-01 -1.909139320910000048e+00 8.144520337689999945e-01 -4.530499004449999867e-01 4.853090833600000320e-02 8.515911504090000195e-01 2.981685930840000109e-01 -2.503672707319999913e-01 1.790596695449999942e-01 -7.131013471870000231e-01 -1.306264727290999961e+00 -7.257466554300000539e-01 8.365791815040000134e-01 1.115749216788999965e+00 1.221399398666999980e+00 7.479962977259999590e-01 -8.414955765999999615e-01 -8.751005909300000329e-01 1.157329595349999990e-01 1.754915899589999939e-01 3.023016407000000006e-03 -2.672748954449999936e-01 -4.528315281170000040e-01 1.506111495290000102e-01 8.341226468339999478e-01 -9.228027195799999582e-02 3.707817441569999928e-01 1.047776917279999997e-01 3.628235643550000167e-01 1.687123507496999908e+00 -2.550637308939999737e-01 1.845640581090000065e-01 -4.274955167700000142e-02 1.368981402443999906e+00 -1.393814508044000089e+00 2.527784511539999945e-01 -1.133963715689999957e-01 6.651647489769999533e-01 6.277162105500000422e-02 -5.817375923399999843e-02 -1.059424757839999981e-01 -2.368256301259999974e-01 -1.238600660604999959e+00 4.244752120779999860e-01 4.696831998739999792e-01 -6.315820398900000299e-02 -2.601703744120000272e-01 -2.986244472184000021e+00 3.643096603600000094e-01 -1.065886487080000000e-01 6.255496577479999765e-01 8.498081402129999962e-01 1.198915982861999963e+00 -7.589181695409999984e-01 -5.023899027870000200e-01 -5.109602771200000282e-02 3.212137818149999879e-01 1.850623706020000092e-01 -8.117362639899999843e-02 6.586086122740000270e-01 -1.218393002912000034e+00 -1.099984864090999936e+00 -5.360210499980000431e-01 2.221461637040000048e-01 9.005995843190000016e-01 1.570794591784999916e+00 -1.177220949690000046e-01 3.506029582390000066e-01 -5.161510198340000244e-01 -4.822095048999999745e-02 -4.415069206930000156e-01 2.575967279310000246e-01 -7.403474802600000515e-02 -2.130967825439999963e-01 -7.408220879110000157e-01 -2.836079989920000100e-01 3.121601370009999821e-01 4.037161828699999955e-01 6.949968595300000385e-02 -1.462497185998999916e+00 6.262667632549999697e-01 7.882719125149999506e-01 1.875437512539999962e-01 -1.258618222533000042e+00 -1.009293677739999950e-01