-5.679569908804521505e-02 1.929580922559824274e-01 -8.544537195915960504e-02 1.929580922559824274e-01 7.209025187407174240e-01 -9.164580778385388038e-02 -8.544537195915960504e-02 -9.164580778385388038e-02 8.436215508468012381e-01
4.947739259592696115e+00 2.278758275667856492e-01 -4.785141909699370810e-01 2.278758275667856492e-01 7.671650977078293465e+00 -3.028461269403948664e-01 -4.785141909699370810e-01 -3.028461269403948664e-01 7.078511748927855507e+00
3.567008245252014653e+00 -4.231101373929094245e-01 -8.256946577131236698e-01 -4.231101373929094245e-01 8.081729409708167111e+00 2.856884146949085351e-02 -8.256946577131236698e-01 2.856884146949085351e-02 3.644947067229210802e+00
-2.430824827981756808e+00 -9.264302359707486320e-03 -1.496790515529950349e+00 -9.264302359707486320e-03 1.903119307795114290e+00 -1.374746859128949783e+00 -1.496790515529950349e+00 -1.374746859128949783e+00 -5.211056777804897067e+00
-6.129232628382493608e+00 3.473176572517422955e-01 -1.995753732618318343e+00 3.473176572517422955e-01 1.173039989451006626e+00 -2.843821263280498002e+00 -1.995753732618318343e+00 -2.843821263280498002e+00 -1.130727928062161780e+01
-7.562107773974034330e+00 4.848265479798914424e-01 -1.212949626952307014e+00 4.848265479798914424e-01 -8.380225260968816592e-01 -2.577030840870448092e+00 -1.212949626952307014e+00 -2.577030840870448092e+00 -1.258118100720654553e+01
-5.900876684137813299e+00 1.172676273933947355e+00 -3.745400331392502724e-01 1.172676273933947355e+00 2.428260309759540103e+00 -1.176913726281229700e+00 -3.745400331392502724e-01 -1.176913726281229700e+00 -7.895962986778171988e+00
-3.156525154197749483e+00 1.425305560549943840e+00 -5.211807421354952563e-01 1.425305560549943840e+00 -7.715249810165540900e-01 -2.725032587818951857e-01 -5.211807421354952563e-01 -2.725032587818951857e-01 -4.396121595525612769e+00
-1.066400625022887017e+00 1.448055886710821749e+00 -1.112583102337460383e+00 1.448055886710821749e+00 5.991358220516578292e-01 -5.890507417083608310e-02 -1.112583102337460383e+00 -5.890507417083608310e-02 -2.086675774145290596e+00
-1.633985924225877406e+00 2.220219172321896473e+00 -7.871072158281215980e-01 2.220219172321896473e+00 6.952908547030925313e+00 1.017954132974867830e-03 -7.871072158281215980e-01 1.017954132974867830e-03 1.992633943495882631e+00
1.062049974705760791e+00 1.494875315934835136e+00 2.632335748367778949e-01 1.494875315934835136e+00 5.874725398649307095e+00 9.273236491386980251e-01 2.632335748367778949e-01 9.273236491386980251e-01 8.284251965690434538e-01
4.535812469342359599e+00 1.654557868440486856e-01 1.232676377489922981e+00 1.654557868440486856e-01 8.495598077885697652e-01 1.993877849097662816e-02 1.232676377489922981e+00 1.993877849097662816e-02 -4.541775416982440028e+00
8.476107157566635797e-01 1.588924592291333093e+00 1.913720487497339029e+00 1.588924592291333093e+00 -5.820480822842175606e+00 2.533499941795162580e-01 1.913720487497339029e+00 2.533499941795162580e-01 -1.042107208185782241e+01
-4.167925516026839361e+00 1.954688171578290445e+00 2.926238805653915698e+00 1.954688171578290445e+00 -9.237457596673142035e+00 8.423926488755015818e-01 2.926238805653915698e+00 8.423926488755015818e-01 -1.107509100127575152e+01
-5.467179072442431398e+00 -2.602541847120335428e-01 1.879234101906506416e+00 -2.602541847120335428e-01 -1.346261368343716791e+00 9.439941014925585794e-01 1.879234101906506416e+00 9.439941014925585794e-01 -6.748089457064807561e+00
-3.278478807301334896e+00 -1.948879112608405517e+00 1.902769505110848691e-01 -1.948879112608405517e+00 -9.377387953612070781e-01 6.656598120134162855e-01 1.902769505110848691e-01 6.656598120134162855e-01 6.354599677831817672e+00
-3.928624578498402631e+00 -1.941797531114995756e+00 -4.352466663275982306e-01 -1.941797531114995756e+00 -6.155141235272555633e+00 6.098207018732972745e-02 -4.352466663275982306e-01 6.098207018732972745e-02 8.533165222333170874e+00
-8.427015841345411928e+00 -3.076723297132179513e-01 -9.873582336948651950e-01 -3.076723297132179513e-01 -9.825030562360815622e+00 -2.902466801797985330e+00 -9.873582336948651950e-01 -2.902466801797985330e+00 -3.338309607711819282e+00
-1.246307378603730243e+01 2.395185960920271473e+00 -5.789853190312174158e-01 2.395185960920271473e+00 1.885880023172618492e+00 -7.983741922937686031e-01 -5.789853190312174158e-01 -7.983741922937686031e-01 -1.037377447447449796e+01
-1.499620227208309053e+01 1.118495005162874145e+00 -1.212391661623680283e+00 1.118495005162874145e+00 -1.248975954386301623e+01 -7.449616662721866844e-02 -1.212391661623680283e+00 -7.449616662721866844e-02 -1.346244806718631537e+01
-6.608636498007246729e+00 -2.364334055156568581e+00 -3.526549522765219935e-01 -2.364334055156568581e+00 -1.503335113456660288e+01 4.755300555392079076e-01 -3.526549522765219935e-01 4.755300555392079076e-01 -6.560021867234044457e+00
5.371202432411302574e+00 -3.264845124597741677e-01 3.860904493397346648e+00 -3.264845124597741677e-01 -1.208370183226820593e+01 -1.549635313864836439e+00 3.860904493397346648e+00 -1.549635313864836439e+00 1.525343024640183787e+00
1.244056779128984935e+01 3.689144035382319942e+00 4.552432343034483075e+00 3.689144035382319942e+00 -8.331490248000452681e+00 -1.602660951871289541e+00 4.552432343034483075e+00 -1.602660951871289541e+00 3.961236323735752851e+00
2.754796391267272604e+00 4.071166970936361373e+00 -8.702279590823616684e-02 4.071166970936361373e+00 8.699485340164856417e-01 -5.163980923583410404e-02 -8.702279590823616684e-02 -5.163980923583410404e-02 -2.617585289952073513e+00
-8.583703398594821010e+00 -1.395129184125446065e+00 -1.983800818223334872e+00 -1.395129184125446065e+00 2.088406433254148098e+00 2.170831135322842442e+00 -1.983800818223334872e+00 2.170831135322842442e+00 -1.313259932502814920e+01
-8.689337874292961672e+00 -1.176927608894711375e+00 -2.862936638151643010e+00 -1.176927608894711375e+00 8.228473628136899976e+00 1.147190732196030849e+00 -2.862936638151643010e+00 1.147190732196030849e+00 -1.253157720339928183e+01
-3.124188911839739458e+00 9.603177240400545545e-01 -2.062101715466928109e+00 9.603177240400545545e-01 -8.506225260389776111e+00 3.721233424265361300e+00 -2.062101715466928109e+00 3.721233424265361300e+00 -3.313449928185452809e+00
8.550565506257827408e+00 1.908893873234902561e+00 -1.700622261560319926e+00 1.908893873234902561e+00 -7.690277079588910603e+00 2.346335755570145842e+00 -1.700622261560319926e+00 2.346335755570145842e+00 7.405815419057691251e+00
4.325112874802048424e+00 1.221945008813559275e+00 -2.340640255893657429e+00 1.221945008813559275e+00 -1.549872837164254236e+01 9.455596159976622506e-01 -2.340640255893657429e+00 9.455596159976622506e-01 4.414907019152646939e+00
4.586505518950901639e+00 -7.042527055442560080e-01 -3.058237014747332783e+00 -7.042527055442560080e-01 -1.957931642049577192e+01 -1.903070104871311952e-01 -3.058237014747332783e+00 -1.903070104871311952e-01 -9.415907403425141098e+00
3.198527690836244997e+00 -1.341887628735682014e+00 -2.401077071820385989e+00 -1.341887628735682014e+00 -6.970968379863332842e+00 2.412186807792073007e-01 -2.401077071820385989e+00 2.412186807792073007e-01 -1.037147375469711363e+01
-4.192156827095118388e+00 -1.855702517343411850e+00 2.315978254208832937e-02 -1.855702517343411850e+00 -1.020779704170915281e+01 5.125877894443815475e-01 2.315978254208832937e-02 5.125877894443815475e-01 -4.763150111780332097e+00
-1.588058109537938911e+01 -1.461641285330256723e+00 9.522727140526282552e-01 -1.461641285330256723e+00 -2.105894739420797279e+01 1.179726525872265119e+00 9.522727140526282552e-01 1.179726525872265119e+00 -9.453142371880488781e+00
-2.257079278211840290e+01 -4.949066187275567574e-01 7.371905270100447272e-01 -4.949066187275567574e-01 -2.068238579687376699e+01 2.228250468655907368e-01 7.371905270100447272e-01 2.228250468655907368e-01 -1.240734578989743220e+01
-2.280262640315196521e+01 1.228901900726435542e-01 1.545744907636995347e+00 1.228901900726435542e-01 -1.708711495222778964e+01 -2.708628390296384247e-01 1.545744907636995347e+00 -2.708628390296384247e-01 -1.315159546021507886e+01
-1.720251548658240281e+01 4.961783152512274642e-01 1.781865924665744894e+00 4.961783152512274642e-01 -9.186266617639562426e+00 -6.999802119070874795e-01 1.781865924665744894e+00 -6.999802119070874795e-01 -6.438896946235294294e+00
-7.598250140460502067e+00 2.290080255411060417e+00 3.852480208990884947e-01 2.290080255411060417e+00 3.430467791012721701e+00 -2.049735221968337573e+00 3.852480208990884947e-01 -2.049735221968337573e+00 -7.130411961568635881e+00
-9.428055584413664647e+00 3.163254320044363244e+00 -1.606396906147956882e-01 3.163254320044363244e+00 3.375398594903105676e-01 -4.917863500559208623e-01 -1.606396906147956882e-01 -4.917863500559208623e-01 -1.366283887496160432e+01
-1.061953618563406820e+01 1.145845998263306686e+00 -7.172959822101275806e-01 1.145845998263306686e+00 -1.719830658167104342e+00 7.363593966760085818e-01 -7.172959822101275806e-01 7.363593966760085818e-01 -1.350760843209858031e+01
-1.506211526703063974e+01 2.047975087327503496e-01 -4.038577265746168266e-01 2.047975087327503496e-01 -2.735554249185629394e-01 -7.311058517542878832e-01 -4.038577265746168266e-01 -7.311058517542878832e-01 -8.423068574768809214e+00
-1.500185781618764658e+01 2.126641041105533925e-01 -1.518971146741447675e-01 2.126641041105533925e-01 1.716364267789520337e+00 -1.326980890901911181e+00 -1.518971146741447675e-01 -1.326980890901911181e+00 3.030507604219155660e+00
-8.785555181729009178e+00 -3.794823221352521259e-01 -4.882992496349121136e-01 -3.794823221352521259e-01 6.700404146985589726e+00 -2.121926722727463410e+00 -4.882992496349121136e-01 -2.121926722727463410e+00 6.604853407503766149e+00
-5.133285581326962443e+00 -2.743829685880325719e-01 -8.000063954947133071e-01 -2.743829685880325719e-01 4.098732291291836916e+00 -1.864258817603243079e+00 -8.000063954947133071e-01 -1.864258817603243079e+00 -1.016080718300985453e+00
-1.049054740136732500e+00 -7.366358316306869103e-01 -3.347482851144547578e-01 -7.366358316306869103e-01 5.422066652759087724e+00 -1.001651177075473464e+00 -3.347482851144547578e-01 -1.001651177075473464e+00 7.123528283508316905e-01
1.379907481116177781e+00 -1.089204623813532002e+00 -1.793328425070450042e-03 -1.089204623813532002e+00 1.008652583098772482e+01 1.070060811321484409e-02 -1.793328425070450042e-03 1.070060811321484409e-02 7.190106977573405445e+00
5.691125566992790930e+00 2.267342112809005994e-01 -2.748611833258352358e-02 2.267342112809005994e-01 1.031624351338633971e+01 6.999800346893869651e-01 -2.748611833258352358e-02 6.999800346893869651e-01 1.246647433055137455e+01
7.036405228412024648e+00 1.278478047175828802e+00 -1.759289798159783813e-01 1.278478047175828802e+00 8.128081935495556465e+00 7.738424971886864734e-01 -1.759289798159783813e-01 7.738424971886864734e-01 1.519004104187484394e+01
9.499394610477464695e+00 1.342243282378584146e+00 2.036892653366664530e-01 1.342243282378584146e+00 7.879406868924409224e+00 1.487274459377878832e+00 2.036892653366664530e-01 1.487274459377878832e+00 1.238143876633130702e+01
9.666555658800714212e+00 8.392089251938203986e-01 1.303831970004458718e-01 8.392089251938203986e-01 4.729790354983236078e+00 1.392422814246706331e+00 1.303831970004458718e-01 1.392422814246706331e+00 8.686103744445201613e+00
1.035225956130950209e+01 2.439347583832190691e-01 -4.510724136938638051e-01 2.439347583832190691e-01 4.504968891929700625e+00 1.141181367424750404e+00 -4.510724136938638051e-01 1.141181367424750404e+00 5.952256073598702457e+00
1.353802257087789762e+01 -8.499840739158401881e-01 -4.850468621881420250e-01 -8.499840739158401881e-01 6.671984630593846610e+00 6.140308072114628590e-01 -4.850468621881420250e-01 6.140308072114628590e-01 4.822588332403418221e+00
1.335985333595134783e+01 -5.375371156053747601e-01 -3.966097598305194927e-01 -5.375371156053747601e-01 6.878988296837120764e+00 -5.208158501179068756e-01 -3.966097598305194927e-01 -5.208158501179068756e-01 2.292484476748585909e+00
5.824071915402981858e+00 4.351822037583864544e-01 -1.423332713532816929e-01 4.351822037583864544e-01 6.692474837349002392e+00 -2.078146433605637944e-01 -1.423332713532816929e-01 -2.078146433605637944e-01 -7.670249270181278556e-01
-2.733409060997910256e+00 3.476691957614399531e-01 -3.957682913298681826e-01 3.476691957614399531e-01 1.751506757634420097e+00 1.279325803751527046e-01 -3.957682913298681826e-01 1.279325803751527046e-01 3.955064042911783373e-01
-5.130781815037559035e+00 4.274921300379416755e-01 -5.743805467274326615e-01 4.274921300379416755e-01 -6.148395444600864401e+00 -1.525897225186557352e-03 -5.743805467274326615e-01 -1.525897225186557352e-03 2.526112318986707628e+00
-4.304391769712310634e+00 -7.306046169024656978e-01 1.241064652745362262e-01 -7.306046169024656978e-01 -9.235457205542475734e+00 -3.064244738866395146e-01 1.241064652745362262e-01 -3.064244738866395146e-01 1.869770405753855280e-01
-4.869543415069285786e+00 -1.730551183997999232e+00 6.550914093005536509e-01 -1.730551183997999232e+00 -7.969291393039612537e+00 6.703678458436391520e-03 6.550914093005536509e-01 6.703678458436391520e-03 -7.761514028273999166e+00
-1.162092961893506882e+01 -1.334558100068231390e+00 1.209033071999137121e+00 -1.334558100068231390e+00 -1.287255298413580462e+01 4.886782297677488285e-01 1.209033071999137121e+00 4.886782297677488285e-01 -1.637836335184870151e+01
-2.019480286746438580e+01 -1.279961220129068655e+00 1.752595848828830016e+00 -1.279961220129068655e+00 -1.861403286656179290e+01 1.222560597597538434e+00 1.752595848828830016e+00 1.222560597597538434e+00 -1.760959958813574744e+01
-1.970097016036946158e+01 -2.861736592391141976e-01 1.278754776596350506e+00 -2.861736592391141976e-01 -2.009202403535883263e+01 7.121156405824760061e-01 1.278754776596350506e+00 7.121156405824760061e-01 -1.443028499815011756e+01
-1.164679888100623373e+01 6.661802230469830999e-01 1.178651856201183845e+00 6.661802230469830999e-01 -1.384355220427876176e+01 6.697699455590094830e-01 1.178651856201183845e+00 6.697699455590094830e-01 -7.678743082005448528e+00
-2.048106642568087832e+00 3.361459708626892695e-01 6.394428646160786878e-01 3.361459708626892695e-01 -9.389164369830270473e+00 2.084481538765455166e+00 6.394428646160786878e-01 2.084481538765455166e+00 -2.860961300759409021e+00
-4.580679245945870726e+00 7.606009308042682715e-01 6.226057533709858927e-01 7.606009308042682715e-01 -1.330984641016953063e+01 1.443324869287145429e+00 6.226057533709858927e-01 1.443324869287145429e+00 -6.824871447135139491e+00
-5.978252924832328397e+00 -1.010549109366939979e-01 1.394915096320422654e+00 -1.010549109366939979e-01 -1.704613086608891592e+01 1.930115742857805516e+00 1.394915096320422654e+00 1.930115742857805516e+00 -1.225172681137276953e+01
-3.232818753274994350e+00 -9.069676310865719682e-01 1.309027184824499646e+00 -9.069676310865719682e-01 -1.562264741338260521e+01 2.037716548023110974e+00 1.309027184824499646e+00 2.037716548023110974e+00 -1.068606745682952841e+01
2.822313670518610706e+00 1.828539792881630710e+00 8.579704138890423826e-01 1.828539792881630710e+00 -6.123814549245206962e+00 -1.237171508103449419e-01 8.579704138890423826e-01 -1.237171508103449419e-01 -5.890613415169741351e+00
4.420953269213892867e+00 1.128597541884956756e+00 1.845679151739400448e+00 1.128597541884956756e+00 3.697268717595901144e+00 -2.143182852126117865e-01 1.845679151739400448e+00 -2.143182852126117865e-01 -5.038708836276049041e-01
3.901645147124854773e+00 -6.214516158240502852e-01 3.091526409828892596e+00 -6.214516158240502852e-01 7.915586182543416172e+00 -3.707779367958232708e-01 3.091526409828892596e+00 -3.707779367958232708e-01 2.363422478624626510e+00
3.929041070339007735e-01 1.559976727594190038e-01 1.328798232235702814e+00 1.559976727594190038e-01 -2.260680366364758775e+00 -1.976922415003670386e+00 1.328798232235702814e+00 -1.976922415003670386e+00 6.391409067725952742e-01
2.893245015453771884e+00 -2.217886871825299533e+00 7.833493555285132581e-01 -2.217886871825299533e+00 -3.860400668952713055e+00 -1.838861850055534930e+00 7.833493555285132581e-01 -1.838861850055534930e+00 -3.446457819869285233e-01
1.925662101441100393e+00 -1.864156050462977499e+00 2.259143800659248136e+00 -1.864156050462977499e+00 4.916082929249380729e-01 -3.702421395762114931e-01 2.259143800659248136e+00 -3.702421395762114931e-01 -2.262185156738734104e-01
2.782696481229754770e+00 -6.729867765016772641e-02 3.111497608708170937e+00 -6.729867765016772641e-02 1.818353305658782304e+01 5.075020644430257022e-01 3.111497608708170937e+00 5.075020644430257022e-01 3.724248705439321849e+00
3.546508067023262711e+00 6.697120966845836465e-01 2.426055834103916897e+00 6.697120966845836465e-01 2.085299198582188041e+01 1.595089953933150895e+00 2.426055834103916897e+00 1.595089953933150895e+00 6.637464124593048354e+00
6.552310051107176569e+00 1.338336195969791032e+00 1.025360363611140579e+00 1.338336195969791032e+00 4.258552605246981315e+00 4.958542753880449960e-01 1.025360363611140579e+00 4.958542753880449960e-01 4.115224986752902936e+00
1.325356285873217521e+00 1.329535702640610495e+00 1.200472231186501260e+00 1.329535702640610495e+00 -7.904347782535208644e+00 -5.385781656764146996e-01 1.200472231186501260e+00 -5.385781656764146996e-01 -1.369505367543644381e+00
-2.550720867551876658e+00 -3.939775831788437377e-01 1.280337534423551693e+00 -3.939775831788437377e-01 -1.460044875282676458e+01 1.693967828679750154e+00 1.280337534423551693e+00 1.693967828679750154e+00 -6.885210557197622983e+00
-6.378319233704761615e+00 -1.865112580682797283e+00 -1.852936632072956558e+00 -1.865112580682797283e+00 -1.925924701763513625e+01 1.987333105331694050e+00 -1.852936632072956558e+00 1.987333105331694050e+00 -4.153014563751649568e+00
1.922262660528733624e+00 -2.262392161733674800e-01 -1.917761656175942298e+00 -2.262392161733674800e-01 -1.815521965156372275e+01 1.772923236901666533e+00 -1.917761656175942298e+00 1.772923236901666533e+00 5.854344930817618753e+00
4.058391697740112214e+00 2.101519410080609163e+00 1.018103490983147230e+00 2.101519410080609163e+00 -1.641524451650853322e+01 6.100687847170421785e-01 1.018103490983147230e+00 6.100687847170421785e-01 1.243182839246187044e+01
4.935972276254202207e+00 3.159044189013826998e+00 3.059258811338790185e+00 3.159044189013826998e+00 -1.989216442017976405e+01 2.154933571248811575e-01 3.059258811338790185e+00 2.154933571248811575e-01 2.872525794713628233e+00
-2.039117852186470348e+00 1.635353691541134191e+00 1.523448521989700932e+00 1.635353691541134191e+00 -2.093962762160137103e+01 -1.575919627201687989e+00 1.523448521989700932e+00 -1.575919627201687989e+00 -9.873706899126679204e+00
-6.312764264654917135e+00 -1.151102351433731741e+00 9.913097559736556708e-01 -1.151102351433731741e+00 -1.431829832656405266e+01 -2.444879150950886704e+00 9.913097559736556708e-01 -2.444879150950886704e+00 -2.116810984535625906e+01
-1.169030742627884756e+01 -1.772464123549329473e+00 1.354210198026410517e+00 -1.772464123549329473e+00 -1.332708678697646754e+01 -1.535298635248660837e+00 1.354210198026410517e+00 -1.535298635248660837e+00 -2.305848314108192199e+01
-1.114127855837246628e+01 7.412105875552602585e-01 1.351213322667858208e+00 7.412105875552602585e-01 -9.780364690052296694e+00 -4.555322333220855335e-01 1.351213322667858208e+00 -4.555322333220855335e-01 -2.324959832585730979e+01
-6.581303718465995267e+00 6.603045673866315690e-01 3.335764562849193315e-01 6.603045673866315690e-01 -1.296819797434759813e+01 8.885105287329125856e-02 3.335764562849193315e-01 8.885105287329125856e-02 -2.090407178250142906e+01
-2.159834467096449551e+00 -1.298426514668340248e+00 2.708050474708215694e-01 -1.298426514668340248e+00 -1.480703453441797457e+01 -2.504674163361264583e+00 2.708050474708215694e-01 -2.504674163361264583e+00 -2.024756506781075061e+01
-3.486969333993676923e+00 -2.285141125982712129e+00 1.544019015128003769e+00 -2.285141125982712129e+00 -1.411940972413045436e+01 -3.312164778063566128e+00 1.544019015128003769e+00 -3.312164778063566128e+00 -1.734587484841230776e+01
-9.874559237232723774e+00 -1.124124519314435355e+00 1.171739366159687767e+00 -1.124124519314435355e+00 -1.279606938855625131e+01 -1.876933167809148095e+00 1.171739366159687767e+00 -1.876933167809148095e+00 -6.736903114392630343e+00
-1.253220798548909620e+01 6.225202344881596295e-01 1.324621619102992032e+00 6.225202344881596295e-01 -3.506509462180032344e+00 2.666885659169849210e-01 1.324621619102992032e+00 2.666885659169849210e-01 -1.410559632440929967e+00
-1.115855030394065750e+01 1.224281944867355865e+00 7.901979998704753427e-01 1.224281944867355865e+00 6.576305304407052077e+00 7.140376699586052922e-01 7.901979998704753427e-01 7.140376699586052922e-01 -1.122984633932340159e+00
-6.011764586241556074e+00 5.541582946717656943e-01 -9.520503810903891972e-01 5.541582946717656943e-01 6.485199629710941771e+00 8.944835948995059072e-01 -9.520503810903891972e-01 8.944835948995059072e-01 4.259266136117616952e+00
1.364446713063517835e+00 9.466522827952428276e-01 -1.514910055932801480e+00 9.466522827952428276e-01 1.928008449988555029e+00 3.519753271090605429e-01 -1.514910055932801480e+00 3.519753271090605429e-01 9.664347264261012427e+00
1.093259919535624825e+01 3.988558018414169459e-01 -2.181707531763270147e+00 3.988558018414169459e-01 -2.070191635155281595e+00 9.890399322153481387e-01 -2.181707531763270147e+00 9.890399322153481387e-01 1.048043383885746849e+01
1.713207289963654745e+01 6.388657711622613977e-01 -2.972007766754432012e+00 6.388657711622613977e-01 -2.979751481768543986e+00 1.966649929987340339e+00 -2.972007766754432012e+00 1.966649929987340339e+00 8.133293396786509533e+00
1.121166442329063528e+01 7.396658916498065617e-01 -1.921473532035136156e+00 7.396658916498065617e-01 2.186767961806101113e+00 4.170610319510366093e-01 -1.921473532035136156e+00 4.170610319510366093e-01 2.052504988039641542e+00
8.510078003311070560e+00 -5.445104437581472778e-01 -1.209178906770332684e+00 -5.445104437581472778e-01 7.801820362479403137e+00 -7.472204007179302776e-01 -1.209178906770332684e+00 -7.472204007179302776e-01 1.293822600426644431e+00
6.200910468195307779e+00 -6.788138966541945596e-01 -4.989030769004743071e-01 -6.788138966541945596e-01 9.326089708249588384e+00 -1.239882595032549162e+00 -4.989030769004743071e-01 -1.239882595032549162e+00 4.454170789318714796e+00
6.994469649588115345e+00 -1.576480027510211712e-01 -1.795855737240011352e-01 -1.576480027510211712e-01 6.133802015099854898e+00 -1.053143105462145623e+00 -1.795855737240011352e-01 -1.053143105462145623e+00 3.359821871931701676e+00
3.713180968894077782e+00 -1.078143256373787356e-01 -4.410730853758852987e-01 -1.078143256373787356e-01 6.197398155406778741e+00 -3.954281642332437841e-01 -4.410730853758852987e-01 -3.954281642332437841e-01 5.989363147652790875e-01
-4.181880186573146141e-02 7.291473237783068218e-01 -7.419755043577094256e-01 7.291473237783068218e-01 5.407871717735842410e+00 5.728913815371379226e-01 -7.419755043577094256e-01 5.728913815371379226e-01 -6.411088849932699674e+00
-2.790341220577650549e+00 4.629191536927259598e-01 -1.216371742177335541e-01 4.629191536927259598e-01 1.001389250580076773e+00 4.782852423379467255e-01 -1.216371742177335541e-01 4.782852423379467255e-01 -8.018093248279729579e+00
2.395093134401207635e+00 2.261088065107999812e-01 3.280609906636880457e-01 2.261088065107999812e-01 -2.663897056713254941e+00 9.293103683748799027e-01 3.280609906636880457e-01 9.293103683748799027e-01 -5.794563328653000056e+00
3.618280533958474265e+00 6.859576490684696770e-01 -6.209784716935241589e-01 6.859576490684696770e-01 -8.496908730855640357e+00 1.420736481757752356e+00 -6.209784716935241589e-01 1.420736481757752356e+00 -5.654225729050120108e+00
6.202443360373404158e-01 6.801136569686734301e-01 -8.457208479824260827e-01 6.801136569686734301e-01 -1.138245407449263347e+01 6.007852036785188421e-01 -8.457208479824260827e-01 6.007852036785188421e-01 -4.693062353744700488e+00
-2.532369225834508963e+00 1.155443923040444520e-01 -5.828382590989164003e-01 1.155443923040444520e-01 -5.790594134483332489e+00 2.681949952913049162e-01 -5.828382590989164003e-01 2.681949952913049162e-01 -8.437058169934893215e+00
-5.045485200476332643e+00 4.594506119457526100e-02 7.730797410111405199e-01 4.594506119457526100e-02 -4.657036017408747952e+00 4.681267504469696639e-01 7.730797410111405199e-01 4.681267504469696639e-01 -8.764438119892369983e+00
-3.446651513914842369e+00 -9.026190508783832334e-01 1.782549999409243746e+00 -9.026190508783832334e-01 -2.844979401065326208e+00 2.492562587155468523e-01 1.782549999409243746e+00 2.492562587155468523e-01 -3.329592282702245054e+00
-2.788111591234737396e+00 -8.936695028776108218e-01 8.355337625380994115e-01 -8.936695028776108218e-01 -2.730490234198003741e+00 -4.227810056461925314e-02 8.355337625380994115e-01 -4.227810056461925314e-02 5.563490565285701628e+00
-3.807534866983131039e+00 4.088658124832332819e-01 4.483829457978847494e-02 4.088658124832332819e-01 -1.134893777311395979e+01 -1.695706528004948532e-01 4.483829457978847494e-02 -1.695706528004948532e-01 6.125592170072629905e+00
-6.394528138668913009e+00 6.946611368370996242e-01 -4.775270748945877330e-01 6.946611368370996242e-01 -1.416598764113048503e+01 -6.849212522364502842e-01 -4.775270748945877330e-01 -6.849212522364502842e-01 -4.102952917481124118e+00
-2.575621650387347472e+00 -3.628217330051752287e-01 -4.828360098807121248e-01 -3.628217330051752287e-01 -7.992058732632937534e+00 -2.169969258758329966e-01 -4.828360098807121248e-01 -2.169969258758329966e-01 -1.239292315097469199e+01
4.913337528315111058e+00 -3.462748065372410200e-01 -1.626751420789160629e-01 -3.462748065372410200e-01 4.523914436532021632e+00 3.833729448594918598e-01 -1.626751420789160629e-01 3.833729448594918598e-01 -1.238296365017031775e+01
3.594692019883758416e+00 -1.075488474836490349e+00 1.730549335913017073e+00 -1.075488474836490349e+00 3.779082687191674506e+00 3.155514559987996348e-01 1.730549335913017073e+00 3.155514559987996348e-01 -1.094110844922603398e+01
2.010026552368377739e-01 -2.278299747276618881e+00 2.852257299561533177e+00 -2.278299747276618881e+00 -2.831842358971870421e+00 1.027556619840077623e+00 2.852257299561533177e+00 1.027556619840077623e+00 -7.791941148981459619e+00
-2.452320886077998363e+00 -2.699504499898437437e+00 3.265841701485150850e+00 -2.699504499898437437e+00 -6.662047408014945660e+00 1.622632285215200421e+00 3.265841701485150850e+00 1.622632285215200421e+00 -4.873019252321617145e+00
-3.371881049261839181e+00 -4.208435720487439191e+00 2.849784020485030211e+00 -4.208435720487439191e+00 -4.379178998502703202e+00 2.086223146608153556e+00 2.849784020485030211e+00 2.086223146608153556e+00 -3.190194982864191786e+00
3.320774361278810094e+00 -3.989583817188363746e+00 1.163637217943893853e+00 -3.989583817188363746e+00 -6.015319277716657531e+00 4.279153412175539239e-01 1.163637217943893853e+00 4.279153412175539239e-01 -3.975659802965025857e-01
8.972821454293271604e-01 -2.316123875227836137e+00 5.590373197284072004e-01 -2.316123875227836137e+00 -3.651048822709067831e+00 -1.790742324104576538e-02 5.590373197284072004e-01 -1.790742324104576538e-02 -6.547799789853080199e+00
3.908488920237799480e+00 -1.538952090064008793e+00 4.264225005266735202e-01 -1.538952090064008793e+00 -3.583176517545692885e+00 1.218813108344703328e-01 4.264225005266735202e-01 1.218813108344703328e-01 -3.935095118596505070e+00
7.423319439706357770e+00 -4.216378113616929546e-02 1.723436193032593655e+00 -4.216378113616929546e-02 2.917884282983596589e-01 -4.927655200589320938e-01 1.723436193032593655e+00 -4.927655200589320938e-01 -8.585200977062601879e+00
2.155202676634573766e+00 7.018206173610698206e-01 2.218597121934604122e+00 7.018206173610698206e-01 -7.476248389522967663e+00 -8.239531001480414618e-01 2.218597121934604122e+00 -8.239531001480414618e-01 -1.388367756384581853e+01
3.854218096182301601e+00 -6.172374944465023328e-01 8.240768675541175758e-01 -6.172374944465023328e-01 -2.711622985769305050e+00 -6.691464458672920224e-02 8.240768675541175758e-01 -6.691464458672920224e-02 -3.803160768498574651e+00
6.529930311493676864e-01 -7.044745599186490181e-02 6.305250561146670263e-01 -7.044745599186490181e-02 1.709743358759104215e+00 -3.409817930845573941e-01 6.305250561146670263e-01 -3.409817930845573941e-01 2.749416897842535512e+00
-1.075164708359918286e+01 -2.088441091663700178e+00 1.391608666817358619e+00 -2.088441091663700178e+00 1.492509779868878672e+00 -2.437320162435937299e+00 1.391608666817358619e+00 -2.437320162435937299e+00 -3.778657632993341231e+00
-1.042216932816359432e+01 -2.544003435581817296e+00 1.100693740279845345e+00 -2.544003435581817296e+00 2.988185710933884742e+00 4.603370236766061718e-01 1.100693740279845345e+00 4.603370236766061718e-01 -9.008012442852741941e+00
-1.697240643381731917e-01 -8.818952826723455707e-02 -8.660597524417481541e-01 -8.818952826723455707e-02 2.846276098769823015e+00 3.211863571220518576e+00 -8.660597524417481541e-01 3.211863571220518576e+00 -6.671570374832585415e+00
1.250152723706185753e+01 4.104629288189853842e-01 -9.470467674518564527e-01 4.104629288189853842e-01 -7.096465157682469993e+00 3.679561029369241787e+00 -9.470467674518564527e-01 3.679561029369241787e+00 4.841787402866406964e+00
6.907374039829582202e+00 6.080184312340595199e-01 9.941993769715016249e-01 6.080184312340595199e-01 -1.085277972655179113e+01 1.469680120246863009e+00 9.941993769715016249e-01 1.469680120246863009e+00 1.831629415133863237e+00
-1.194140924613331656e+01 2.641390811542085881e+00 -1.427249232380529032e+00 2.641390811542085881e+00 -9.300891424239017269e+00 1.677696607282018082e+00 -1.427249232380529032e+00 1.677696607282018082e+00 -1.011791231256462531e+01
-1.441969608744768649e+01 5.453967111977002791e-01 -1.507949754105992302e+00 5.453967111977002791e-01 -1.015434387705568220e+01 2.954116420552602484e+00 -1.507949754105992302e+00 2.954116420552602484e+00 -1.312641348772272210e+01