7.737465608849935172e+00 0.000000000000000000e+00 0.000000000000000000e+00 0.000000000000000000e+00 7.737465608849935172e+00 0.000000000000000000e+00 0.000000000000000000e+00 0.000000000000000000e+00 8.457556130840046649e+00
7.739212779992691971e+00 0.000000000000000000e+00 0.000000000000000000e+00 0.000000000000000000e+00 7.739212779992691971e+00 0.000000000000000000e+00 0.000000000000000000e+00 0.000000000000000000e+00 8.459465903206821125e+00
7.743483952841534901e+00 0.000000000000000000e+00 0.000000000000000000e+00 0.000000000000000000e+00 7.743483952841534901e+00 0.000000000000000000e+00 0.000000000000000000e+00 0.000000000000000000e+00 8.464134574570541858e+00
7.749912614490222396e+00 0.000000000000000000e+00 0.000000000000000000e+00 0.000000000000000000e+00 7.749912614490222396e+00 0.000000000000000000e+00 0.000000000000000000e+00 0.000000000000000000e+00 8.471161522345315831e+00
7.758832949615087848e+00 0.000000000000000000e+00 0.000000000000000000e+00 0.000000000000000000e+00 7.758832949615087848e+00 0.000000000000000000e+00 0.000000000000000000e+00 0.000000000000000000e+00 8.480912032245443655e+00
7.770122540418802792e+00 0.000000000000000000e+00 0.000000000000000000e+00 0.000000000000000000e+00 7.770122540418802792e+00 0.000000000000000000e+00 0.000000000000000000e+00 0.000000000000000000e+00 8.493252293610185077e+00
7.781270707942592679e+00 0.000000000000000000e+00 0.000000000000000000e+00 0.000000000000000000e+00 7.781270707942592679e+00 0.000000000000000000e+00 0.000000000000000000e+00 0.000000000000000000e+00 8.505437970077760923e+00
7.788936865104884255e+00 0.000000000000000000e+00 0.000000000000000000e+00 0.000000000000000000e+00 7.788936865104884255e+00 0.000000000000000000e+00 0.000000000000000000e+00 0.000000000000000000e+00 8.513817581411194269e+00
7.791787997174909108e+00 0.000000000000000000e+00 0.000000000000000000e+00 0.000000000000000000e+00 7.791787997174909108e+00 0.000000000000000000e+00 0.000000000000000000e+00 0.000000000000000000e+00 8.516934055297832984e+00
7.791486145066460978e+00 0.000000000000000000e+00 0.000000000000000000e+00 0.000000000000000000e+00 7.791486145066460978e+00 0.000000000000000000e+00 0.000000000000000000e+00 0.000000000000000000e+00 8.516604111195089644e+00
7.789434496634367378e+00 0.000000000000000000e+00 0.000000000000000000e+00 0.000000000000000000e+00 7.789434496634367378e+00 0.000000000000000000e+00 0.000000000000000000e+00 0.000000000000000000e+00 8.514361525231089800e+00
7.783395036061321548e+00 0.000000000000000000e+00 0.000000000000000000e+00 0.000000000000000000e+00 7.783395036061321548e+00 0.000000000000000000e+00 0.000000000000000000e+00 0.000000000000000000e+00 8.507759999694458841e+00
7.771816793355172948e+00 0.000000000000000000e+00 0.000000000000000000e+00 0.000000000000000000e+00 7.771816793355172948e+00 0.000000000000000000e+00 0.000000000000000000e+00 0.000000000000000000e+00 8.495104222914921621e+00
7.756893685064078170e+00 0.000000000000000000e+00 0.000000000000000000e+00 0.000000000000000000e+00 7.756893685064078170e+00 0.000000000000000000e+00 0.000000000000000000e+00 0.000000000000000000e+00 8.478792289215324018e+00
7.741937670753399559e+00 0.000000000000000000e+00 0.000000000000000000e+00 0.000000000000000000e+00 7.741937670753399559e+00 0.000000000000000000e+00 0.000000000000000000e+00 0.000000000000000000e+00 8.462444387083770891e+00
7.730055740146370091e+00 0.000000000000000000e+00 0.000000000000000000e+00 0.000000000000000000e+00 7.730055740146370091e+00 0.000000000000000000e+00 0.000000000000000000e+00 0.000000000000000000e+00 8.449456659559041682e+00
7.722871681995972182e+00 0.000000000000000000e+00 0.000000000000000000e+00 0.000000000000000000e+00 7.722871681995972182e+00 0.000000000000000000e+00 0.000000000000000000e+00 0.000000000000000000e+00 8.441604013987234367e+00
7.719994654307010151e+00 0.000000000000000000e+00 0.000000000000000000e+00 0.000000000000000000e+00 7.719994654307010151e+00 0.000000000000000000e+00 0.000000000000000000e+00 0.000000000000000000e+00 8.438459234494532168e+00
7.721508550869566001e+00 0.000000000000000000e+00 0.000000000000000000e+00 0.000000000000000000e+00 7.721508550869566001e+00 0.000000000000000000e+00 0.000000000000000000e+00 0.000000000000000000e+00 8.440114022484074496e+00
7.729490935453556588e+00 0.000000000000000000e+00 0.000000000000000000e+00 0.000000000000000000e+00 7.729490935453556588e+00 0.000000000000000000e+00 0.000000000000000000e+00 0.000000000000000000e+00 8.448839291078799718e+00
7.744659696136602101e+00 0.000000000000000000e+00 0.000000000000000000e+00 0.000000000000000000e+00 7.744659696136602101e+00 0.000000000000000000e+00 0.000000000000000000e+00 0.000000000000000000e+00 8.465419738914748748e+00
7.765371040437867300e+00 0.000000000000000000e+00 0.000000000000000000e+00 0.000000000000000000e+00 7.765371040437867300e+00 0.000000000000000000e+00 0.000000000000000000e+00 0.000000000000000000e+00 8.488058593266687879e+00
7.788302776426889729e+00 0.000000000000000000e+00 0.000000000000000000e+00 0.000000000000000000e+00 7.788302776426889729e+00 0.000000000000000000e+00 0.000000000000000000e+00 0.000000000000000000e+00 8.513124481001888455e+00
7.809802085521392101e+00 0.000000000000000000e+00 0.000000000000000000e+00 0.000000000000000000e+00 7.809802085521392101e+00 0.000000000000000000e+00 0.000000000000000000e+00 0.000000000000000000e+00 8.536624632424940629e+00
7.828021202265670553e+00 0.000000000000000000e+00 0.000000000000000000e+00 0.000000000000000000e+00 7.828021202265670553e+00 0.000000000000000000e+00 0.000000000000000000e+00 0.000000000000000000e+00 8.556539319004006217e+00
7.840238818828390244e+00 0.000000000000000000e+00 0.000000000000000000e+00 0.000000000000000000e+00 7.840238818828390244e+00 0.000000000000000000e+00 0.000000000000000000e+00 0.000000000000000000e+00 8.569893973239596008e+00
7.844190612176676680e+00 0.000000000000000000e+00 0.000000000000000000e+00 0.000000000000000000e+00 7.844190612176676680e+00 0.000000000000000000e+00 0.000000000000000000e+00 0.000000000000000000e+00 8.574213541913858094e+00
7.841267100685289648e+00 0.000000000000000000e+00 0.000000000000000000e+00 0.000000000000000000e+00 7.841267100685289648e+00 0.000000000000000000e+00 0.000000000000000000e+00 0.000000000000000000e+00 8.571017952584632837e+00
7.835163453518720900e+00 0.000000000000000000e+00 0.000000000000000000e+00 0.000000000000000000e+00 7.835163453518720900e+00 0.000000000000000000e+00 0.000000000000000000e+00 0.000000000000000000e+00 8.564346266902864713e+00
7.825809079561314441e+00 0.000000000000000000e+00 0.000000000000000000e+00 0.000000000000000000e+00 7.825809079561314441e+00 0.000000000000000000e+00 0.000000000000000000e+00 0.000000000000000000e+00 8.554121324160714579e+00
7.811645168292053576e+00 0.000000000000000000e+00 0.000000000000000000e+00 0.000000000000000000e+00 7.811645168292053576e+00 0.000000000000000000e+00 0.000000000000000000e+00 0.000000000000000000e+00 8.538639242476239843e+00
7.794591636692315362e+00 0.000000000000000000e+00 0.000000000000000000e+00 0.000000000000000000e+00 7.794591636692315362e+00 0.000000000000000000e+00 0.000000000000000000e+00 0.000000000000000000e+00 8.519998616717295192e+00
7.779340581014985823e+00 0.000000000000000000e+00 0.000000000000000000e+00 0.000000000000000000e+00 7.779340581014985823e+00 0.000000000000000000e+00 0.000000000000000000e+00 0.000000000000000000e+00 8.503328215068146179e+00
7.770593564878444326e+00 0.000000000000000000e+00 0.000000000000000000e+00 0.000000000000000000e+00 7.770593564878444326e+00 0.000000000000000000e+00 0.000000000000000000e+00 0.000000000000000000e+00 8.493767154161490751e+00
7.767979726609484104e+00 0.000000000000000000e+00 0.000000000000000000e+00 0.000000000000000000e+00 7.767979726609484104e+00 0.000000000000000000e+00 0.000000000000000000e+00 0.000000000000000000e+00 8.490910057923796828e+00
7.766872187809811479e+00 0.000000000000000000e+00 0.000000000000000000e+00 0.000000000000000000e+00 7.766872187809811479e+00 0.000000000000000000e+00 0.000000000000000000e+00 0.000000000000000000e+00 8.489699445555446644e+00
7.765705473864768393e+00 0.000000000000000000e+00 0.000000000000000000e+00 0.000000000000000000e+00 7.765705473864768393e+00 0.000000000000000000e+00 0.000000000000000000e+00 0.000000000000000000e+00 8.488424150881428432e+00
7.765919928710300901e+00 0.000000000000000000e+00 0.000000000000000000e+00 0.000000000000000000e+00 7.765919928710300901e+00 0.000000000000000000e+00 0.000000000000000000e+00 0.000000000000000000e+00 8.488658564059075928e+00
7.767569319386912419e+00 0.000000000000000000e+00 0.000000000000000000e+00 0.000000000000000000e+00 7.767569319386912419e+00 0.000000000000000000e+00 0.000000000000000000e+00 0.000000000000000000e+00 8.490461455979085414e+00
7.769643738922928478e+00 0.000000000000000000e+00 0.000000000000000000e+00 0.000000000000000000e+00 7.769643738922928478e+00 0.000000000000000000e+00 0.000000000000000000e+00 0.000000000000000000e+00 8.492728932250809493e+00
7.769857416242937020e+00 0.000000000000000000e+00 0.000000000000000000e+00 0.000000000000000000e+00 7.769857416242937020e+00 0.000000000000000000e+00 0.000000000000000000e+00 0.000000000000000000e+00 8.492962495541348744e+00
7.766881260844583856e+00 0.000000000000000000e+00 0.000000000000000000e+00 0.000000000000000000e+00 7.766881260844583856e+00 0.000000000000000000e+00 0.000000000000000000e+00 0.000000000000000000e+00 8.489709362976359586e+00
7.761943022731569997e+00 0.000000000000000000e+00 0.000000000000000000e+00 0.000000000000000000e+00 7.761943022731569997e+00 0.000000000000000000e+00 0.000000000000000000e+00 0.000000000000000000e+00 8.484311545636820995e+00
7.757550057097802210e+00 0.000000000000000000e+00 0.000000000000000000e+00 0.000000000000000000e+00 7.757550057097802210e+00 0.000000000000000000e+00 0.000000000000000000e+00 0.000000000000000000e+00 8.479509746791420000e+00
7.753341435977892715e+00 0.000000000000000000e+00 0.000000000000000000e+00 0.000000000000000000e+00 7.753341435977892715e+00 0.000000000000000000e+00 0.000000000000000000e+00 0.000000000000000000e+00 8.474909448560122627e+00
7.747119634457456883e+00 0.000000000000000000e+00 0.000000000000000000e+00 0.000000000000000000e+00 7.747119634457456883e+00 0.000000000000000000e+00 0.000000000000000000e+00 0.000000000000000000e+00 8.468108612439783300e+00
7.738197007153786444e+00 0.000000000000000000e+00 0.000000000000000000e+00 0.000000000000000000e+00 7.738197007153786444e+00 0.000000000000000000e+00 0.000000000000000000e+00 0.000000000000000000e+00 8.458355597037078510e+00
7.728863967614572061e+00 0.000000000000000000e+00 0.000000000000000000e+00 0.000000000000000000e+00 7.728863967614572061e+00 0.000000000000000000e+00 0.000000000000000000e+00 0.000000000000000000e+00 8.448153974210690365e+00
7.722707763729535380e+00 0.000000000000000000e+00 0.000000000000000000e+00 0.000000000000000000e+00 7.722707763729535380e+00 0.000000000000000000e+00 0.000000000000000000e+00 0.000000000000000000e+00 8.441424840597610668e+00
7.721001508339255359e+00 0.000000000000000000e+00 0.000000000000000000e+00 0.000000000000000000e+00 7.721001508339255359e+00 0.000000000000000000e+00 0.000000000000000000e+00 0.000000000000000000e+00 8.439559791824391866e+00
7.722343840103389034e+00 0.000000000000000000e+00 0.000000000000000000e+00 0.000000000000000000e+00 7.722343840103389034e+00 0.000000000000000000e+00 0.000000000000000000e+00 0.000000000000000000e+00 8.441027048265423716e+00
7.725218383251653442e+00 0.000000000000000000e+00 0.000000000000000000e+00 0.000000000000000000e+00 7.725218383251653442e+00 0.000000000000000000e+00 0.000000000000000000e+00 0.000000000000000000e+00 8.444169111991758570e+00
7.729632861683586320e+00 0.000000000000000000e+00 0.000000000000000000e+00 0.000000000000000000e+00 7.729632861683586320e+00 0.000000000000000000e+00 0.000000000000000000e+00 0.000000000000000000e+00 8.448994425732799129e+00
7.736895184173470774e+00 0.000000000000000000e+00 0.000000000000000000e+00 0.000000000000000000e+00 7.736895184173470774e+00 0.000000000000000000e+00 0.000000000000000000e+00 0.000000000000000000e+00 8.456932619349165847e+00
7.747749187326561149e+00 0.000000000000000000e+00 0.000000000000000000e+00 0.000000000000000000e+00 7.747749187326561149e+00 0.000000000000000000e+00 0.000000000000000000e+00 0.000000000000000000e+00 8.468796754913629599e+00
7.760045451877558342e+00 0.000000000000000000e+00 0.000000000000000000e+00 0.000000000000000000e+00 7.760045451877558342e+00 0.000000000000000000e+00 0.000000000000000000e+00 0.000000000000000000e+00 8.482237376545363361e+00
7.770885186036784908e+00 0.000000000000000000e+00 0.000000000000000000e+00 0.000000000000000000e+00 7.770885186036784908e+00 0.000000000000000000e+00 0.000000000000000000e+00 0.000000000000000000e+00 8.494085915166607492e+00
7.779262809434661641e+00 0.000000000000000000e+00 0.000000000000000000e+00 0.000000000000000000e+00 7.779262809434661641e+00 0.000000000000000000e+00 0.000000000000000000e+00 0.000000000000000000e+00 8.503243205643485680e+00
7.786413635764351859e+00 0.000000000000000000e+00 0.000000000000000000e+00 0.000000000000000000e+00 7.786413635764351859e+00 0.000000000000000000e+00 0.000000000000000000e+00 0.000000000000000000e+00 8.511059526661387764e+00
7.792924480423970124e+00 0.000000000000000000e+00 0.000000000000000000e+00 0.000000000000000000e+00 7.792924480423970124e+00 0.000000000000000000e+00 0.000000000000000000e+00 0.000000000000000000e+00 8.518176305844063378e+00
7.796749691097905277e+00 0.000000000000000000e+00 0.000000000000000000e+00 0.000000000000000000e+00 7.796749691097905277e+00 0.000000000000000000e+00 0.000000000000000000e+00 0.000000000000000000e+00 8.522357511372785410e+00
7.795632894752521302e+00 0.000000000000000000e+00 0.000000000000000000e+00 0.000000000000000000e+00 7.795632894752521302e+00 0.000000000000000000e+00 0.000000000000000000e+00 0.000000000000000000e+00 8.521136779901683056e+00
7.790019015756699083e+00 0.000000000000000000e+00 0.000000000000000000e+00 0.000000000000000000e+00 7.790019015756699083e+00 0.000000000000000000e+00 0.000000000000000000e+00 0.000000000000000000e+00 8.515000442873287056e+00
7.783444178439442140e+00 0.000000000000000000e+00 0.000000000000000000e+00 0.000000000000000000e+00 7.783444178439442140e+00 0.000000000000000000e+00 0.000000000000000000e+00 0.000000000000000000e+00 8.507813715529254139e+00
7.778837436247237669e+00 0.000000000000000000e+00 0.000000000000000000e+00 0.000000000000000000e+00 7.778837436247237669e+00 0.000000000000000000e+00 0.000000000000000000e+00 0.000000000000000000e+00 8.502778244918939521e+00
7.774645798686566245e+00 0.000000000000000000e+00 0.000000000000000000e+00 0.000000000000000000e+00 7.774645798686566245e+00 0.000000000000000000e+00 0.000000000000000000e+00 0.000000000000000000e+00 8.498196510829780337e+00
7.768411767460527528e+00 0.000000000000000000e+00 0.000000000000000000e+00 0.000000000000000000e+00 7.768411767460527528e+00 0.000000000000000000e+00 0.000000000000000000e+00 0.000000000000000000e+00 8.491382306840389305e+00
7.761288722825916864e+00 0.000000000000000000e+00 0.000000000000000000e+00 0.000000000000000000e+00 7.761288722825916864e+00 0.000000000000000000e+00 0.000000000000000000e+00 0.000000000000000000e+00 8.483596353032684334e+00
7.756052576940748899e+00 0.000000000000000000e+00 0.000000000000000000e+00 0.000000000000000000e+00 7.756052576940748899e+00 0.000000000000000000e+00 0.000000000000000000e+00 0.000000000000000000e+00 8.477872903007586558e+00
7.754072048678266604e+00 0.000000000000000000e+00 0.000000000000000000e+00 0.000000000000000000e+00 7.754072048678266604e+00 0.000000000000000000e+00 0.000000000000000000e+00 0.000000000000000000e+00 8.475708056042098093e+00
7.753795936502651642e+00 0.000000000000000000e+00 0.000000000000000000e+00 0.000000000000000000e+00 7.753795936502651642e+00 0.000000000000000000e+00 0.000000000000000000e+00 0.000000000000000000e+00 8.475406247368399093e+00
7.752497973295118250e+00 0.000000000000000000e+00 0.000000000000000000e+00 0.000000000000000000e+00 7.752497973295118250e+00 0.000000000000000000e+00 0.000000000000000000e+00 0.000000000000000000e+00 8.473987488664201706e+00
7.749056688359191369e+00 0.000000000000000000e+00 0.000000000000000000e+00 0.000000000000000000e+00 7.749056688359191369e+00 0.000000000000000000e+00 0.000000000000000000e+00 0.000000000000000000e+00 8.470225939085814559e+00
7.746693567789024293e+00 0.000000000000000000e+00 0.000000000000000000e+00 0.000000000000000000e+00 7.746693567789024293e+00 0.000000000000000000e+00 0.000000000000000000e+00 0.000000000000000000e+00 8.467642893695600748e+00
7.749669738162291210e+00 0.000000000000000000e+00 0.000000000000000000e+00 0.000000000000000000e+00 7.749669738162291210e+00 0.000000000000000000e+00 0.000000000000000000e+00 0.000000000000000000e+00 8.470896042628496048e+00
7.757984059606553906e+00 0.000000000000000000e+00 0.000000000000000000e+00 0.000000000000000000e+00 7.757984059606553906e+00 0.000000000000000000e+00 0.000000000000000000e+00 0.000000000000000000e+00 8.479984139927671194e+00
7.768625372195954171e+00 0.000000000000000000e+00 0.000000000000000000e+00 0.000000000000000000e+00 7.768625372195954171e+00 0.000000000000000000e+00 0.000000000000000000e+00 0.000000000000000000e+00 8.491615790791385621e+00
7.779638031761769490e+00 0.000000000000000000e+00 0.000000000000000000e+00 0.000000000000000000e+00 7.779638031761769490e+00 0.000000000000000000e+00 0.000000000000000000e+00 0.000000000000000000e+00 8.503653348194582406e+00
7.790378645963559556e+00 0.000000000000000000e+00 0.000000000000000000e+00 0.000000000000000000e+00 7.790378645963559556e+00 0.000000000000000000e+00 0.000000000000000000e+00 0.000000000000000000e+00 8.515393542217488232e+00
7.798990480257248059e+00 0.000000000000000000e+00 0.000000000000000000e+00 0.000000000000000000e+00 7.798990480257248059e+00 0.000000000000000000e+00 0.000000000000000000e+00 0.000000000000000000e+00 8.524806840526709451e+00
7.803171187952835375e+00 0.000000000000000000e+00 0.000000000000000000e+00 0.000000000000000000e+00 7.803171187952835375e+00 0.000000000000000000e+00 0.000000000000000000e+00 0.000000000000000000e+00 8.529376627559638990e+00
7.803471534895948025e+00 0.000000000000000000e+00 0.000000000000000000e+00 0.000000000000000000e+00 7.803471534895948025e+00 0.000000000000000000e+00 0.000000000000000000e+00 0.000000000000000000e+00 8.529704926417851496e+00
7.799831110418327107e+00 0.000000000000000000e+00 0.000000000000000000e+00 0.000000000000000000e+00 7.799831110418327107e+00 0.000000000000000000e+00 0.000000000000000000e+00 0.000000000000000000e+00 8.525725704290453066e+00
7.791488692369798130e+00 0.000000000000000000e+00 0.000000000000000000e+00 0.000000000000000000e+00 7.791488692369798130e+00 0.000000000000000000e+00 0.000000000000000000e+00 0.000000000000000000e+00 8.516606895564061475e+00
7.782381523772403220e+00 0.000000000000000000e+00 0.000000000000000000e+00 0.000000000000000000e+00 7.782381523772403220e+00 0.000000000000000000e+00 0.000000000000000000e+00 0.000000000000000000e+00 8.506652164455491771e+00
7.775311100081890636e+00 0.000000000000000000e+00 0.000000000000000000e+00 0.000000000000000000e+00 7.775311100081890636e+00 0.000000000000000000e+00 0.000000000000000000e+00 0.000000000000000000e+00 8.498923728780694020e+00
7.769095574634326873e+00 0.000000000000000000e+00 0.000000000000000000e+00 0.000000000000000000e+00 7.769095574634326873e+00 0.000000000000000000e+00 0.000000000000000000e+00 0.000000000000000000e+00 8.492129752818867061e+00
7.762201582039224057e+00 0.000000000000000000e+00 0.000000000000000000e+00 0.000000000000000000e+00 7.762201582039224057e+00 0.000000000000000000e+00 0.000000000000000000e+00 0.000000000000000000e+00 8.484594167875963322e+00
7.756676616484589282e+00 0.000000000000000000e+00 0.000000000000000000e+00 0.000000000000000000e+00 7.756676616484589282e+00 0.000000000000000000e+00 0.000000000000000000e+00 0.000000000000000000e+00 8.478555019057122166e+00
7.753433607703325237e+00 0.000000000000000000e+00 0.000000000000000000e+00 0.000000000000000000e+00 7.753433607703325237e+00 0.000000000000000000e+00 0.000000000000000000e+00 0.000000000000000000e+00 8.475010198286177854e+00
7.750090678452232318e+00 0.000000000000000000e+00 0.000000000000000000e+00 0.000000000000000000e+00 7.750090678452232318e+00 0.000000000000000000e+00 0.000000000000000000e+00 0.000000000000000000e+00 8.471356157904933681e+00
7.746503713636881727e+00 0.000000000000000000e+00 0.000000000000000000e+00 0.000000000000000000e+00 7.746503713636881727e+00 0.000000000000000000e+00 0.000000000000000000e+00 0.000000000000000000e+00 8.467435370686166252e+00
7.744951928072427272e+00 0.000000000000000000e+00 0.000000000000000000e+00 0.000000000000000000e+00 7.744951928072427272e+00 0.000000000000000000e+00 0.000000000000000000e+00 0.000000000000000000e+00 8.465739167539023668e+00
7.746034298375977123e+00 0.000000000000000000e+00 0.000000000000000000e+00 0.000000000000000000e+00 7.746034298375977123e+00 0.000000000000000000e+00 0.000000000000000000e+00 0.000000000000000000e+00 8.466922269094734332e+00
7.750107555558082062e+00 0.000000000000000000e+00 0.000000000000000000e+00 0.000000000000000000e+00 7.750107555558082062e+00 0.000000000000000000e+00 0.000000000000000000e+00 0.000000000000000000e+00 8.471374605685744186e+00
7.757835580229245132e+00 0.000000000000000000e+00 0.000000000000000000e+00 0.000000000000000000e+00 7.757835580229245132e+00 0.000000000000000000e+00 0.000000000000000000e+00 0.000000000000000000e+00 8.479821842253905118e+00
7.767856920881390792e+00 0.000000000000000000e+00 0.000000000000000000e+00 0.000000000000000000e+00 7.767856920881390792e+00 0.000000000000000000e+00 0.000000000000000000e+00 0.000000000000000000e+00 8.490775823228492669e+00
7.777564744471234803e+00 0.000000000000000000e+00 0.000000000000000000e+00 0.000000000000000000e+00 7.777564744471234803e+00 0.000000000000000000e+00 0.000000000000000000e+00 0.000000000000000000e+00 8.501387109542735132e+00
7.786219298884013540e+00 0.000000000000000000e+00 0.000000000000000000e+00 0.000000000000000000e+00 7.786219298884013540e+00 0.000000000000000000e+00 0.000000000000000000e+00 0.000000000000000000e+00 8.510847103736157493e+00
7.793240384415531352e+00 0.000000000000000000e+00 0.000000000000000000e+00 0.000000000000000000e+00 7.793240384415531352e+00 0.000000000000000000e+00 0.000000000000000000e+00 0.000000000000000000e+00 8.518521609574390752e+00
7.797560729788322043e+00 0.000000000000000000e+00 0.000000000000000000e+00 0.000000000000000000e+00 7.797560729788322043e+00 0.000000000000000000e+00 0.000000000000000000e+00 0.000000000000000000e+00 8.523244029722718551e+00
7.797626889690485896e+00 0.000000000000000000e+00 0.000000000000000000e+00 0.000000000000000000e+00 7.797626889690485896e+00 0.000000000000000000e+00 0.000000000000000000e+00 0.000000000000000000e+00 8.523316346825440704e+00
7.792859317966064125e+00 0.000000000000000000e+00 0.000000000000000000e+00 0.000000000000000000e+00 7.792859317966064125e+00 0.000000000000000000e+00 0.000000000000000000e+00 0.000000000000000000e+00 8.518105079013066572e+00
7.784306829902761571e+00 0.000000000000000000e+00 0.000000000000000000e+00 0.000000000000000000e+00 7.784306829902761571e+00 0.000000000000000000e+00 0.000000000000000000e+00 0.000000000000000000e+00 8.508756650017438972e+00
7.773821483063574789e+00 0.000000000000000000e+00 0.000000000000000000e+00 0.000000000000000000e+00 7.773821483063574789e+00 0.000000000000000000e+00 0.000000000000000000e+00 0.000000000000000000e+00 8.497295479923385741e+00
7.762788324009760821e+00 0.000000000000000000e+00 0.000000000000000000e+00 0.000000000000000000e+00 7.762788324009760821e+00 0.000000000000000000e+00 0.000000000000000000e+00 0.000000000000000000e+00 8.485235515238175097e+00
7.752269222654875946e+00 0.000000000000000000e+00 0.000000000000000000e+00 0.000000000000000000e+00 7.752269222654875946e+00 0.000000000000000000e+00 0.000000000000000000e+00 0.000000000000000000e+00 8.473737449248504916e+00
7.742832829997593258e+00 0.000000000000000000e+00 0.000000000000000000e+00 0.000000000000000000e+00 7.742832829997593258e+00 0.000000000000000000e+00 0.000000000000000000e+00 0.000000000000000000e+00 8.463422854702416842e+00
7.735305705720987746e+00 0.000000000000000000e+00 0.000000000000000000e+00 0.000000000000000000e+00 7.735305705720987746e+00 0.000000000000000000e+00 0.000000000000000000e+00 0.000000000000000000e+00 8.455195215409185394e+00
7.731330455767722931e+00 0.000000000000000000e+00 0.000000000000000000e+00 0.000000000000000000e+00 7.731330455767722931e+00 0.000000000000000000e+00 0.000000000000000000e+00 0.000000000000000000e+00 8.450850007131514019e+00
7.731888709427247264e+00 0.000000000000000000e+00 0.000000000000000000e+00 0.000000000000000000e+00 7.731888709427247264e+00 0.000000000000000000e+00 0.000000000000000000e+00 0.000000000000000000e+00 8.451460214904974677e+00
7.735777230953746475e+00 0.000000000000000000e+00 0.000000000000000000e+00 0.000000000000000000e+00 7.735777230953746475e+00 0.000000000000000000e+00 0.000000000000000000e+00 0.000000000000000000e+00 8.455710623338342558e+00
7.740750802974368128e+00 0.000000000000000000e+00 0.000000000000000000e+00 0.000000000000000000e+00 7.740750802974368128e+00 0.000000000000000000e+00 0.000000000000000000e+00 0.000000000000000000e+00 8.461147062950558961e+00
7.745951223125183915e+00 0.000000000000000000e+00 0.000000000000000000e+00 0.000000000000000000e+00 7.745951223125183915e+00 0.000000000000000000e+00 0.000000000000000000e+00 0.000000000000000000e+00 8.466831462411445131e+00
7.751814715921153898e+00 0.000000000000000000e+00 0.000000000000000000e+00 0.000000000000000000e+00 7.751814715921153898e+00 0.000000000000000000e+00 0.000000000000000000e+00 0.000000000000000000e+00 8.473240643653266346e+00
7.757464353615137753e+00 0.000000000000000000e+00 0.000000000000000000e+00 0.000000000000000000e+00 7.757464353615137753e+00 0.000000000000000000e+00 0.000000000000000000e+00 0.000000000000000000e+00 8.479416067277670166e+00
7.760955261259422144e+00 0.000000000000000000e+00 0.000000000000000000e+00 0.000000000000000000e+00 7.760955261259422144e+00 0.000000000000000000e+00 0.000000000000000000e+00 0.000000000000000000e+00 8.483231857723829705e+00
7.761492217441539943e+00 0.000000000000000000e+00 0.000000000000000000e+00 0.000000000000000000e+00 7.761492217441539943e+00 0.000000000000000000e+00 0.000000000000000000e+00 0.000000000000000000e+00 8.483818785960293596e+00
7.759999555369753388e+00 0.000000000000000000e+00 0.000000000000000000e+00 0.000000000000000000e+00 7.759999555369753388e+00 0.000000000000000000e+00 0.000000000000000000e+00 0.000000000000000000e+00 8.482187208660144861e+00
7.757871164231413097e+00 0.000000000000000000e+00 0.000000000000000000e+00 0.000000000000000000e+00 7.757871164231413097e+00 0.000000000000000000e+00 0.000000000000000000e+00 0.000000000000000000e+00 8.479860737897009670e+00
7.756364222371823658e+00 0.000000000000000000e+00 0.000000000000000000e+00 0.000000000000000000e+00 7.756364222371823658e+00 0.000000000000000000e+00 0.000000000000000000e+00 0.000000000000000000e+00 8.478213551852709529e+00
7.755740493290196547e+00 0.000000000000000000e+00 0.000000000000000000e+00 0.000000000000000000e+00 7.755740493290196547e+00 0.000000000000000000e+00 0.000000000000000000e+00 0.000000000000000000e+00 8.477531775159221183e+00
7.755584402726700688e+00 0.000000000000000000e+00 0.000000000000000000e+00 0.000000000000000000e+00 7.755584402726700688e+00 0.000000000000000000e+00 0.000000000000000000e+00 0.000000000000000000e+00 8.477361157961345484e+00
7.755826687508037054e+00 0.000000000000000000e+00 0.000000000000000000e+00 0.000000000000000000e+00 7.755826687508037054e+00 0.000000000000000000e+00 0.000000000000000000e+00 0.000000000000000000e+00 8.477625991078888035e+00
7.757357746295801881e+00 0.000000000000000000e+00 0.000000000000000000e+00 0.000000000000000000e+00 7.757357746295801881e+00 0.000000000000000000e+00 0.000000000000000000e+00 0.000000000000000000e+00 8.479299538502443667e+00
7.762035629975494899e+00 0.000000000000000000e+00 0.000000000000000000e+00 0.000000000000000000e+00 7.762035629975494899e+00 0.000000000000000000e+00 0.000000000000000000e+00 0.000000000000000000e+00 8.484412771413134990e+00
7.770989442843651673e+00 0.000000000000000000e+00 0.000000000000000000e+00 0.000000000000000000e+00 7.770989442843651673e+00 0.000000000000000000e+00 0.000000000000000000e+00 0.000000000000000000e+00 8.494199874677621054e+00
7.783487494514102600e+00 0.000000000000000000e+00 0.000000000000000000e+00 0.000000000000000000e+00 7.783487494514102600e+00 0.000000000000000000e+00 0.000000000000000000e+00 0.000000000000000000e+00 8.507861062832709820e+00
7.797668486802040277e+00 0.000000000000000000e+00 0.000000000000000000e+00 0.000000000000000000e+00 7.797668486802040277e+00 0.000000000000000000e+00 0.000000000000000000e+00 0.000000000000000000e+00 8.523361815189710811e+00
7.811854830696173480e+00 0.000000000000000000e+00 0.000000000000000000e+00 0.000000000000000000e+00 7.811854830696173480e+00 0.000000000000000000e+00 0.000000000000000000e+00 0.000000000000000000e+00 8.538868417201040728e+00
7.824496459791149050e+00 0.000000000000000000e+00 0.000000000000000000e+00 0.000000000000000000e+00 7.824496459791149050e+00 0.000000000000000000e+00 0.000000000000000000e+00 0.000000000000000000e+00 8.552686544875735208e+00
7.836068453826266378e+00 0.000000000000000000e+00 0.000000000000000000e+00 0.000000000000000000e+00 7.836068453826266378e+00 0.000000000000000000e+00 0.000000000000000000e+00 0.000000000000000000e+00 8.565335491447589433e+00
7.846333653795684704e+00 0.000000000000000000e+00 0.000000000000000000e+00 0.000000000000000000e+00 7.846333653795684704e+00 0.000000000000000000e+00 0.000000000000000000e+00 0.000000000000000000e+00 8.576556026610811401e+00