1.549523910999999962e-03 7.736818897001000117e+00 2.112328975000000129e-03 2.149854750000000018e-04 7.735780302742999659e+00 4.232450718657999822e+00 7.730997137560000176e+00 3.870246424057000034e+00 8.456813127490999449e+00 4.858894554999999837e-03 3.862631135395000026e+00 4.229805785431000054e+00 3.869585618626000034e+00 4.259810594999999950e-03 8.455021936627000301e+00 3.868005056659999941e+00 7.736782424245999934e+00 4.230018749010000079e+00 3.863978212603000006e+00 3.868154206308000109e+00 5.247860610000000406e-04 3.870655580321999967e+00 3.871456692316999959e+00 4.224835953400000399e+00 1.945870062076999973e+00 1.937011696195999999e+00 1.949787559463000086e+00 1.935551682722999933e+00 1.930280135332000047e+00 6.184381029429999899e+00 1.933674723972000020e+00 5.812600984258000203e+00 1.948482190108000056e+00 1.938037040703000091e+00 5.795603914091000064e+00 6.173274005014000032e+00 5.801817893914000379e+00 1.929613641001000079e+00 1.943568139824999985e+00 5.804816972768000127e+00 1.939334094130999997e+00 6.176807942918999927e+00 5.801088835159999846e+00 5.799197970922000067e+00 1.939780209373999975e+00 5.803210306043999900e+00 5.799653810079999694e+00 6.186479262081999941e+00 7.737450471600999968e+00 1.955913250428999994e+00 1.589661677737999934e+00 7.730132590953999738e+00 1.933622669357000001e+00 5.825492184955000319e+00 1.653082231000000107e-03 5.805099061694000362e+00 1.580187048538999939e+00 8.442213546999999610e-03 5.816853304210000353e+00 5.804050718497999917e+00 3.872285097939999865e+00 1.925536103965999946e+00 1.587644488208000082e+00 3.877437275819000106e+00 1.944623866783000032e+00 5.812930631300999629e+00 3.864662426396999972e+00 5.807015297190000425e+00 1.578323317670000003e+00 3.880785930762999936e+00 5.808820891845999590e+00 5.819092961822000198e+00 1.936811606595999935e+00 9.556149410000000857e-03 1.588136362593999928e+00 1.940707172300000005e+00 7.733773375249000104e+00 5.830515664122000175e+00 1.935461540231000033e+00 3.875077593388999819e+00 1.588327825496999912e+00 1.917500132403999968e+00 3.888842415390000085e+00 5.808506727882000398e+00 5.809645693570000269e+00 7.722882232244000278e+00 1.599576649545999985e+00 5.794558910383999617e+00 7.734840716539999939e+00 5.802760134957000382e+00 5.792998530305999871e+00 3.862977123245999955e+00 1.603713998312999989e+00 5.780128896086999646e+00 3.868776434423999877e+00 5.834500689949000396e+00 1.948440503140000057e+00 1.924771103656000015e+00 3.734247298831999906e+00 1.925591775141999973e+00 1.926916163395999915e+00 7.939259428793000062e+00 1.937799842483999946e+00 5.788202718972000227e+00 3.713430013588999934e+00 1.937556818695000072e+00 5.799857791213000269e+00 7.952180833513000202e+00 5.794427911890999816e+00 1.939856739497000104e+00 3.713856460176999885e+00 5.801823740508000427e+00 1.927846972321000107e+00 7.943881355954999890e+00 5.809997002122000431e+00 5.810069879551000405e+00 3.721376077313999886e+00 5.803804973892000341e+00 5.810438407180999576e+00 7.962433201950999795e+00
9.225229095000000643e-03 7.735283571866999885e+00 1.231293392799999963e-02 9.060276450000000290e-04 7.728954687188999806e+00 4.251401376289999590e+00 7.700688628041000072e+00 3.878748348839999860e+00 8.455034059627999810e+00 2.885266733600000064e-02 3.833304763626999900e+00 4.235274636469999798e+00 3.874830450676999938e+00 2.499948545000000091e-02 8.443743845532999615e+00 3.865654468679999844e+00 7.735190797267000207e+00 4.236911694978999776e+00 3.841137558424999821e+00 3.866577616669999884e+00 2.891710979000000018e-03 3.881335505856999823e+00 3.885907215052999852e+00 4.205720882644000014e+00 1.999279108939000071e+00 1.952269304776000025e+00 1.960321757263000064e+00 1.943214088996999989e+00 1.909105376205999960e+00 6.205719293101999767e+00 1.930822962901999951e+00 5.858210959106999738e+00 1.941220933744000066e+00 1.957035889214999935e+00 5.763687905274999856e+00 6.156806826982999858e+00 5.800127493754000163e+00 1.906275810846000063e+00 1.918727923972999960e+00 5.812861881662000130e+00 1.961025817374999924e+00 6.170981511123000196e+00 5.792710149351999682e+00 5.781173128757999713e+00 1.900596915683999910e+00 5.806028294738999840e+00 5.786851411498999731e+00 6.227628816604999784e+00 4.534414294999999755e-03 2.054810950129000169e+00 1.594720632537999894e+00 7.707375564817000146e+00 1.932899304910999927e+00 5.863298959591999981e+00 1.038695214400000080e-02 5.813272994264999660e+00 1.539235193966999926e+00 3.788170281400000255e-02 5.881891423516999673e+00 5.744768217644000252e+00 3.883845781699000188e+00 1.884600418662000010e+00 1.579382628370000097e+00 3.901798203089000161e+00 1.994755949573000064e+00 5.796152358816000216e+00 3.847587135121000035e+00 5.828067394732999951e+00 1.528518766576999921e+00 3.930999817966000176e+00 5.835396977252999662e+00 5.829354989376000162e+00 1.945909069387000034e+00 5.609651613999999675e-02 1.586072135758999968e+00 1.972547841803000024e+00 7.729031728866000428e+00 5.893269054804999740e+00 1.944947284656000086e+00 3.897259450093999877e+00 1.585703648855999903e+00 1.842021502061000016e+00 3.961066088202000124e+00 5.769539399220000142e+00 5.842616937235000307e+00 7.670767158411999631e+00 1.647796011318999998e+00 5.757365294121999710e+00 7.726777975425999756e+00 5.736860627098000265e+00 5.743658085843000194e+00 3.839055537565999821e+00 1.668812106984999932e+00 5.681692092201999778e+00 3.876910651400999885e+00 5.917503114704000033e+00 2.015404795834999874e+00 1.883423984331999979e+00 3.782936760579000079e+00 1.886453223156999925e+00 1.895684426904000075e+00 7.918027562637999672e+00 1.955082165934000082e+00 5.722187333576999713e+00 3.689742597681000102e+00 1.953343708573000104e+00 5.784534463494999557e+00 7.960130693616999764e+00 5.754474231365000136e+00 1.966340428145999963e+00 3.685031957929000068e+00 5.796725820759999870e+00 1.894972672159999982e+00 7.933378879539000117e+00 5.844061376896999782e+00 5.840325833861999882e+00 3.714093287639999907e+00 5.809966123756000300e+00 5.845952229271000000e+00 8.024448546467999321e+00
1.676253535299999931e-02 7.736479594852999853e+00 2.172902274799999936e-02 1.431103050000000047e-04 7.724189498392999731e+00 4.270642004033000205e+00 7.674167752106000329e+00 3.888326860724999889e+00 8.456624788218000788e+00 5.169583954399999820e-02 3.806398411487999844e+00 4.239965960296999903e+00 3.881536075646999873e+00 4.401793416500000139e-02 8.433859804237000546e+00 3.865987557692000198e+00 7.736348379739999892e+00 4.244546433340000036e+00 3.819603457867999818e+00 3.867530767188999796e+00 4.898900833000000010e-03 3.894025674546000015e+00 3.901452922427000036e+00 4.187098355650999970e+00 2.036347960766000220e+00 1.973888818312000026e+00 1.989996666414999948e+00 1.955977162324999963e+00 1.884474758427999941e+00 6.200193662073999690e+00 1.929610043423999999e+00 5.893611886342999817e+00 1.925938393260000048e+00 1.976765112058999962e+00 5.751070975760000259e+00 6.161063372773000424e+00 5.812660088442999751e+00 1.884324602523000047e+00 1.906006821252000050e+00 5.815404584621999717e+00 1.970955994797999988e+00 6.168424410097999910e+00 5.787560365062000223e+00 5.765923379898000078e+00 1.886409882002999971e+00 5.813971935846000250e+00 5.787149432346000211e+00 6.263826445837000101e+00 1.592821606500000042e-02 2.119673214805999795e+00 1.604305938783999963e+00 7.719147119665000112e+00 1.940799124852000013e+00 5.889741152716999828e+00 2.248614599199999856e-02 5.811853701120000437e+00 1.508040698257000045e+00 2.969552146900000106e-02 5.927481999872999729e+00 5.717692152665000194e+00 3.880755196329999990e+00 1.856465361029999928e+00 1.563504119712999962e+00 3.871806786521000188e+00 2.035408850791000201e+00 5.799005393687999721e+00 3.839607274212999855e+00 5.852555412999000062e+00 1.490564195703999895e+00 3.940392792717000159e+00 5.851068470843999947e+00 5.845863721157000370e+00 1.941619506007999929e+00 8.487256404000000087e-02 1.588476832330000033e+00 2.001590907320999868e+00 1.403275016300000073e-02 5.944855419809999653e+00 1.968448059176999942e+00 3.893750513541999858e+00 1.582717338724999978e+00 1.799455548595999987e+00 3.941242090090999906e+00 5.752111438927999920e+00 5.872894551458999857e+00 7.686431443890000104e+00 1.676238241754000047e+00 5.739424815063999930e+00 7.737586492021000240e+00 5.701105736121999890e+00 5.696641143935000429e+00 3.833985115567999813e+00 1.699130273913999956e+00 5.639441517747999733e+00 3.904452397546000153e+00 5.992694276863000269e+00 2.066758656725999899e+00 1.867724859471999954e+00 3.776416793146999851e+00 1.864562951563000004e+00 1.886448770045999979e+00 7.961504998578999626e+00 1.971149983424000052e+00 5.685455583659999590e+00 3.687468727656999956e+00 1.966315972144000002e+00 5.769057122117000169e+00 7.941533704829000229e+00 5.724821841174000170e+00 1.987129102523000013e+00 3.669786451193000065e+00 5.793663416613999750e+00 1.861967544502999949e+00 7.953178188252000069e+00 5.871605215769999830e+00 5.849748026373999821e+00 3.671177152772000074e+00 5.821832423388999977e+00 5.873828867302999690e+00 8.058105006331999220e+00
2.449340737199999854e-02 7.741258116899000008e+00 3.022693789200000050e-02 7.747284613627999583e+00 7.721229958860000409e+00 4.289221595905000406e+00 7.652091508253000107e+00 3.897606876435999901e+00 8.461440945802999991e+00 7.310538675399999575e-02 3.782229106078999870e+00 4.242785852955999637e+00 3.889098425139000170e+00 6.169668870000000194e-02 8.424871293570999953e+00 3.869194181805999833e+00 7.739933914483000166e+00 4.252173684525000219e+00 3.798911072736999905e+00 3.870242739599000004e+00 6.515002873999999750e-03 3.908619812836000129e+00 3.917810278410999825e+00 4.168733937089999841e+00 2.050105313216000091e+00 2.002083780931000145e+00 2.019233422805000178e+00 1.972191110992999930e+00 1.863892662637999909e+00 6.193464598175999924e+00 1.931847142951000018e+00 5.913459299041999628e+00 1.909773143108000060e+00 1.994033979879999974e+00 5.754431076830000436e+00 6.178136583100999779e+00 5.841225177876999908e+00 1.866906382557999899e+00 1.907448460756999919e+00 5.810552218896000376e+00 1.967096508558999979e+00 6.176791057454000367e+00 5.785641270303999661e+00 5.755440455946000178e+00 1.891565962642999921e+00 5.827184913481000095e+00 5.803175509903000240e+00 6.292305186462000322e+00 1.777043337100000023e-02 2.139968505645999830e+00 1.625226718109000101e+00 7.737424441715000434e+00 1.953854882534999948e+00 5.895729301560000302e+00 3.614887780199999706e-02 5.796960545289000066e+00 1.494420360601000031e+00 7.741347479196000414e+00 5.939325644253999670e+00 5.739662086943000396e+00 3.878813469064000152e+00 1.846248692045000084e+00 1.542618161065000049e+00 3.819926054254000114e+00 2.059681045352999895e+00 5.823975336736999964e+00 3.843393466011999937e+00 5.883057149646999662e+00 1.473316308730000079e+00 3.901904799417000191e+00 5.852967836257000123e+00 5.866301877008999632e+00 1.917556567190999983e+00 6.879672133500000508e-02 1.599183411055999926e+00 2.020507081826000029e+00 3.497786797400000147e-02 5.971533441683000376e+00 2.008772871700000184e+00 3.881756830502999911e+00 1.583261006092000045e+00 1.804126221580000022e+00 3.860903117869999956e+00 5.767496996328000058e+00 5.899231747153000249e+00 9.669765288999999583e-03 1.679853477240000004e+00 5.744458666334000263e+00 2.636478883499999981e-02 5.706335993131999906e+00 5.656116851402999579e+00 3.858675940896000078e+00 1.681348913394000055e+00 5.668146078570999613e+00 3.934990260235000203e+00 6.051417242528000173e+00 2.093219780115000095e+00 1.884393266105000020e+00 3.755949754696000120e+00 1.868766868722000041e+00 1.904967882838999982e+00 8.007502963368999360e+00 1.982272409109999911e+00 5.691327388070000382e+00 3.689293528024999880e+00 1.971455493317999963e+00 5.753844333062000160e+00 7.911143051128999737e+00 5.708142098444000112e+00 1.999283521094000093e+00 3.685169731814000205e+00 5.793771765083000069e+00 1.833631652918999988e+00 7.971060367076000297e+00 5.885832208084000428e+00 5.835622243377000196e+00 3.619144835823000061e+00 5.839411319077999707e+00 5.894069186334999877e+00 8.052048197826000120e+00
3.290773209500000296e-02 7.750951201724999962e+00 3.764664210100000102e-02 7.751612384609000372e+00 7.720646326936999593e+00 4.307358084779999707e+00 7.635252554697999905e+00 3.905735190539000090e+00 8.469384007924000812e+00 9.341150294699999967e-02 3.760962992357999912e+00 4.244697679785000233e+00 3.897090552758000204e+00 7.909159367599999380e-02 8.417582500342000174e+00 3.875229491308000096e+00 7.746451577970000280e+00 4.259688936043000140e+00 3.779238195006000112e+00 3.873790929590000154e+00 7.176781410999999791e-03 3.924965908403000192e+00 3.934897078344000043e+00 4.151567286448000438e+00 2.042504328295000171e+00 2.030558298215999979e+00 2.020235154333000160e+00 1.983961821510999979e+00 1.862358559915999967e+00 6.212191274000000263e+00 1.939366376941999981e+00 5.917978574156999905e+00 1.902924491293999987e+00 2.003290332799000151e+00 5.759712485531999882e+00 6.189237837501999628e+00 5.879139860319000377e+00 1.863211956840999939e+00 1.926446827134000062e+00 5.802680065230999773e+00 1.955365366199999899e+00 6.198013908763999602e+00 5.786859155179000069e+00 5.752561824426000392e+00 1.894714019900000102e+00 5.843692440348999817e+00 5.830508095632000121e+00 6.306187731804000052e+00 4.941011522000000010e-03 2.124134612728000082e+00 1.660977192048999962e+00 7.728587430740000208e+00 1.961051213196999932e+00 5.878034964690000308e+00 3.836183608299999909e-02 5.771454761331000327e+00 1.499541000737999896e+00 7.705186019532000330e+00 5.917755556636000058e+00 5.807565745456000350e+00 3.886724221222999986e+00 1.851772590284999964e+00 1.526435446755000092e+00 3.814124518120999952e+00 2.064933398219999994e+00 5.863540727201000280e+00 3.861565596701999947e+00 5.923240218233000398e+00 1.479839620696999924e+00 3.851221077044999941e+00 5.845386343190000389e+00 5.884164121972999872e+00 1.877267220200999898e+00 1.770173413000000057e-02 1.620226865103000069e+00 2.020668699203000074e+00 1.755366358000000045e-03 5.963487015533999624e+00 2.057601146504000056e+00 3.881772314472999863e+00 1.595976552418000072e+00 1.849385235656000104e+00 3.807139195537000198e+00 5.809162393790000323e+00 5.924427560324000197e+00 6.728628905700000107e-02 1.662283106862000093e+00 5.761142738992999668e+00 6.849764561599999690e-02 5.748839614399000375e+00 5.633362082498999612e+00 3.904433622477000210e+00 1.620350402464999950e+00 5.753954459237999863e+00 3.950131624670000008e+00 6.083917947333000065e+00 2.093117123428000159e+00 1.925002674252999979e+00 3.776794051553999942e+00 1.898541801833999898e+00 1.940385342966000071e+00 8.009705735732000065e+00 1.984667934798999944e+00 5.739661266735000211e+00 3.683744825874999851e+00 1.963939942637999980e+00 5.742325254473000129e+00 7.916619086731000010e+00 5.705718376782000334e+00 2.006089145106999982e+00 3.726903301771999910e+00 5.799724877746999852e+00 1.816143281156000100e+00 7.968693668582999656e+00 5.884157204920000162e+00 5.812370087387000339e+00 3.617598881421999923e+00 5.861942656115999739e+00 5.916807582659999731e+00 8.037135661011999943e+00
4.196186500299999705e-02 7.764745677479999664e+00 4.373395131599999708e-02 7.757062309800000222e+00 7.722161779986000063e+00 4.325856551170000230e+00 7.623058387372999789e+00 3.913168043245999872e+00 8.479193817700000579e+00 1.127019206029999943e-01 3.742238364483000179e+00 4.247412039828000196e+00 3.905501919659999821e+00 9.638565520599999548e-02 8.412371907429999851e+00 3.883544718195000023e+00 7.756001355729999602e+00 4.267264613298999976e+00 3.761203292664000220e+00 3.878045044273000119e+00 5.559773770000000018e-03 3.942990327324999988e+00 3.952310812368999837e+00 4.136678549444999575e+00 2.022724760667999888e+00 2.049581880620999996e+00 1.998896983410999972e+00 1.986453372248000004e+00 1.881084018224000065e+00 6.248729960699000330e+00 1.950972928354999913e+00 5.909976254617999913e+00 1.906746137989999923e+00 1.998646202933000104e+00 5.760092381218999691e+00 6.193483058763000315e+00 5.913062776620000349e+00 1.880398016355000035e+00 1.966629501714999950e+00 5.795892277756999889e+00 1.947633283752999933e+00 6.223395604012000426e+00 5.792489358931000254e+00 5.762402305742000408e+00 1.889867179242000095e+00 5.859900940296999927e+00 5.858286522324999801e+00 6.297667492540999667e+00 3.253153630000000249e-04 2.092544354155999820e+00 1.706847871921000070e+00 7.714781408671999685e+00 1.952873755973999925e+00 5.841681710549000428e+00 1.917303901099999888e-02 5.740604513444999668e+00 1.520141458314000049e+00 7.696003432570000413e+00 5.881536957340999905e+00 5.896427901031000118e+00 3.888959657038999929e+00 1.866193824873999985e+00 1.526919140004000086e+00 3.869216244243999903e+00 2.046802668246999968e+00 5.909911655519000107e+00 3.892146178507999821e+00 5.972388859398000349e+00 1.508390816081000008e+00 3.839512876085999782e+00 5.831180505542000070e+00 5.891929269500000288e+00 1.832907073502000106e+00 7.756252031332000030e+00 1.646171840971000000e+00 1.995868631858999986e+00 7.706963334187999948e+00 5.924156865002999872e+00 2.098873381929000193e+00 3.888704170430000051e+00 1.629537729658999901e+00 1.910799905861999992e+00 3.822263275214000000e+00 5.858036423985000241e+00 5.949151051869000284e+00 6.630168645400000282e-02 1.633329687934000019e+00 5.774753724673000299e+00 7.851332351699999434e-02 5.812913341149999802e+00 5.639896098261999668e+00 3.937304462420999851e+00 1.535007733655000095e+00 5.865342716107999621e+00 3.952330427620000197e+00 6.085593768279999871e+00 2.069030777841999846e+00 1.978607186465999979e+00 3.807361604778999986e+00 1.941391943413999899e+00 1.976485988472000077e+00 7.994854465615000016e+00 1.978177155722999903e+00 5.814447038365000431e+00 3.682705105267999990e+00 1.943378246725999903e+00 5.736436261696000294e+00 7.972197572850999947e+00 5.719917375919999714e+00 2.013068563940000111e+00 3.761759125394999792e+00 5.814203693884000046e+00 1.812276783978000072e+00 7.977532921644000297e+00 5.864240751655000139e+00 5.790561052322000357e+00 3.674682827920999983e+00 5.885841323644999790e+00 5.950609676992000274e+00 8.055939316227000546e+00
5.071369289899999716e-02 7.778335694993000260e+00 4.846298504899999859e-02 7.761827935608000217e+00 7.722861866599999736e+00 4.343866046579999640e+00 7.611981796741999595e+00 3.920257042033000072e+00 8.487005557967000513e+00 1.305766051430000130e-01 3.724809536480000016e+00 4.250763479278999668e+00 3.914129114476999849e+00 1.129061418350000012e-01 8.407304099684999699e+00 3.892342315446999823e+00 7.765762086889999694e+00 4.273867184114999773e+00 3.744604108989999958e+00 3.882610596805999847e+00 5.674028790000000110e-04 3.961673017711000000e+00 3.968995821480000075e+00 4.123511149716000190e+00 1.999958366311000102e+00 2.050259370951000193e+00 1.981105450493999998e+00 1.981708495342000109e+00 1.911371951800999947e+00 6.272261796207000195e+00 1.961352213831000002e+00 5.896296719127000152e+00 1.915620112944999898e+00 1.979857690677000015e+00 5.755574167506999572e+00 6.209718468912000411e+00 5.929644823140000298e+00 1.907974176703999936e+00 2.017638184204999963e+00 5.793181312166000296e+00 1.953212171569000066e+00 6.246875339458999754e+00 5.803999201096999627e+00 5.788955324315000261e+00 1.892429111545999909e+00 5.872405563503999559e+00 5.875201649319000019e+00 6.277126652753000080e+00 1.905921734500000062e-02 2.065276798670999892e+00 1.752708695139000072e+00 7.746005041860000162e+00 1.926181541542999920e+00 5.799534990733000051e+00 7.771174649409999802e+00 5.707730123332000360e+00 1.555575815210000101e+00 7.739103001972999607e+00 5.850896507772000099e+00 5.975567444198000011e+00 3.877553524561000220e+00 1.880527691668000045e+00 1.549084097991000109e+00 3.924320976344000123e+00 2.004148094584000006e+00 5.956622600963999759e+00 3.918316943625999915e+00 6.018997701737999861e+00 1.555874028239000006e+00 3.878550459873999934e+00 5.810322559860000347e+00 5.886047907232000220e+00 1.796690416119000044e+00 4.401454098999999995e-03 1.668827312998000023e+00 1.951923892726000087e+00 7.694793866618000244e+00 5.869373485977000371e+00 2.118924818356000106e+00 3.896543530304000136e+00 1.683237775737999931e+00 1.966826080626999929e+00 3.874931360660000212e+00 5.900298773132999663e+00 5.968693439665000433e+00 3.206962543300000135e-02 1.611242906723999946e+00 5.780377605644999583e+00 3.313107033300000115e-02 5.876599574833000439e+00 5.677332466285999857e+00 3.925719047095999947e+00 1.453727337576999901e+00 5.967633101488000413e+00 3.941760429486000028e+00 6.058981605371999812e+00 2.028513366908000215e+00 2.035339818381999955e+00 3.792390081140999847e+00 1.980622986251999951e+00 2.003114038232999938e+00 8.010443682694999623e+00 1.967464346035999956e+00 5.890387564741000226e+00 3.700179716066999802e+00 1.916679711028000055e+00 5.737019442550000292e+00 8.029991272994999818e+00 5.749087267323999662e+00 2.023040721060000102e+00 3.768869915469000187e+00 5.837952800951000221e+00 1.822519889287000039e+00 8.020225532495999232e+00 5.823341852610999680e+00 5.770637563172999585e+00 3.731237979333000165e+00 5.902088819035999911e+00 5.989392107110999675e+00 8.086294542118000805e+00
5.819869228200000300e-02 7.787355850798999946e+00 5.214821910300000002e-02 7.763635898638000299e+00 7.718972706153000019e+00 4.359292287024000068e+00 7.597981632217999604e+00 3.926288215251000135e+00 8.488986446153999665e+00 1.467957957920000001e-01 3.707548937399999911e+00 4.252819923390999790e+00 3.922369637108999996e+00 1.282467597020000016e-01 8.399921145204000794e+00 3.899158606731000010e+00 7.771356127198999708e+00 4.277911620497000023e+00 3.728468223369000079e+00 3.886309047170000142e+00 8.506546985424000340e+00 3.979243595535999933e+00 3.984180212385000086e+00 4.110319299913999913e+00 1.978555061995000086e+00 2.027381962340999877e+00 1.977166696360999953e+00 1.969780514398999927e+00 1.944164826361000076e+00 6.269647518088000027e+00 1.965017414060999945e+00 5.886208201618000402e+00 1.929413675224999958e+00 1.952177113005999942e+00 5.754569575208000387e+00 6.247085111982999983e+00 5.925452865839000438e+00 1.933003977649000005e+00 2.051704499147000149e+00 5.800670678349000298e+00 1.971518030658000020e+00 6.273638321374000348e+00 5.820381584104000083e+00 5.827969957706000237e+00 1.910373334183000038e+00 5.880024348959000058e+00 5.875728589943999935e+00 6.262529462712000061e+00 3.408604333299999900e-02 2.055708208822999872e+00 1.789153742237999944e+00 3.886872028800000128e-02 1.885140420336999911e+00 5.770276638871999708e+00 7.761731682250999853e+00 5.679185147905999820e+00 1.605449363353999903e+00 3.551864732300000216e-02 5.834833490651000432e+00 6.024070861432000434e+00 3.871852809117999783e+00 1.885130343971000100e+00 1.588122761444000108e+00 3.930201001784999981e+00 1.945024124851999936e+00 5.993527168115999615e+00 3.917205316805000059e+00 6.046860098933000138e+00 1.614749754413999927e+00 3.935827840907999864e+00 5.785430317013999790e+00 5.870453657834000083e+00 1.779136086057000021e+00 4.488218262399999714e-02 1.682516495607000007e+00 1.913157359633999910e+00 7.752461675939000152e+00 5.819034070563000149e+00 2.118387996470000090e+00 3.923127963889000203e+00 1.742710333980999948e+00 2.008453674128999999e+00 3.901380378128000093e+00 5.926673758041999918e+00 5.979007658932999902e+00 9.182939819999999531e-03 1.616190979965000052e+00 5.786126844831000149e+00 7.756314673491999656e+00 5.922784676213000310e+00 5.731563627649999937e+00 3.877484742986000210e+00 1.407773342769000013e+00 6.035723060073999946e+00 3.899867514423999815e+00 6.011724671097000261e+00 1.986120135698000055e+00 2.083708551436000089e+00 3.747064129487999828e+00 2.003696760810000033e+00 2.015335919687999855e+00 8.048379712778000794e+00 1.959485043594999976e+00 5.944976835045999941e+00 3.725711181931000038e+00 1.896863461614999968e+00 5.746764727330999634e+00 8.053533882181000081e+00 5.785112240417999985e+00 2.036064478129000044e+00 3.780263784553000050e+00 5.868514955230000218e+00 1.845600594114999993e+00 8.057906445941000584e+00 5.767094388904999924e+00 5.750910567777999916e+00 3.744972198640999839e+00 5.902397372165999911e+00 6.013805963721000403e+00 8.075627650189000306e+00
6.425827932899999539e-02 7.790752798247999600e+00 5.526253528200000126e-02 7.762360572246000068e+00 7.709080443936000115e+00 4.370807412959000438e+00 7.579954984711999799e+00 3.930446016973999868e+00 8.484473035289999743e+00 1.615176131330000042e-01 3.690254738020000147e+00 4.251810858409999838e+00 3.929597402200000200e+00 1.427161450630000106e-01 8.389722078245000603e+00 3.902429629044000148e+00 7.770765438307000395e+00 4.279036111008999832e+00 3.711926338435000083e+00 3.888200615930000215e+00 8.500763392359999671e+00 3.994415301491999859e+00 3.997724473298000181e+00 4.096013050467999683e+00 1.960170576639000073e+00 1.985721797387000054e+00 1.978683873912000069e+00 1.953116029667000042e+00 1.970756658253000060e+00 6.253917837736000074e+00 1.961369374471999993e+00 5.881617548930000439e+00 1.955548811626000028e+00 1.923352958818999925e+00 5.766315400190999974e+00 6.294124723472999783e+00 5.903835525655000360e+00 1.953146948297999952e+00 2.052671436664000204e+00 5.817144118166999611e+00 1.996472593757999903e+00 6.300618214706999787e+00 5.837511025756000116e+00 5.872230310947999854e+00 1.940101515462999915e+00 5.879866799186999948e+00 5.860623681945999586e+00 6.259311185847000303e+00 1.201395762900000011e-02 2.068142515118999825e+00 1.804369400176000005e+00 1.181603821899999962e-01 1.846793838183999892e+00 5.771215455633999625e+00 7.764611416798000043e+00 5.666234967798000177e+00 1.661043198895999939e+00 1.100591008070000015e-01 5.829018712538999836e+00 6.033440725431000295e+00 3.894523990473000019e+00 1.876223798732999937e+00 1.634182302039000056e+00 3.911978817801999853e+00 1.881614940408000036e+00 6.017156074136000399e+00 3.890619389540999951e+00 6.045565396136000302e+00 1.669252927098000105e+00 3.982508800425000217e+00 5.760436178672000196e+00 5.855298424023000159e+00 1.782607404548999908e+00 6.894971795500000333e-02 1.681576724254000066e+00 1.909574197793999950e+00 5.145948171200000198e-02 5.790888558469999836e+00 2.107863746287999884e+00 3.972910606706999914e+00 1.785047689647000002e+00 2.034628414599000124e+00 3.881670643065000093e+00 5.934023003512000294e+00 5.980612106964000141e+00 7.273282623000000384e-03 1.651501697819999892e+00 5.808065641716000371e+00 7.722645967880000129e+00 5.941689345684999957e+00 5.776562794778000054e+00 3.828156642719000136e+00 1.416139018391000093e+00 6.062223535034999777e+00 3.824635367218999882e+00 5.959408950243999747e+00 1.957434333439000085e+00 2.112269815447000099e+00 3.727908933509000100e+00 2.003524633880000128e+00 2.012251920113000025e+00 8.067965955509000864e+00 1.959024852810999917e+00 5.969548740967000278e+00 3.741906699993999830e+00 1.896831430356999970e+00 5.770547175097999748e+00 8.055819870982000808e+00 5.820934200604000353e+00 2.049199107464000136e+00 3.826130829508000097e+00 5.902346422135999582e+00 1.874479226005999921e+00 8.056510971446000369e+00 5.714130074366999601e+00 5.731937146176999676e+00 3.713831293167999981e+00 5.887718602981999894e+00 6.004505320077999642e+00 8.019466598116000711e+00
6.906023234800000299e-02 7.791028715986000108e+00 5.823380515599999724e-02 7.760245604252999918e+00 7.695579097600999674e+00 4.379079365724000361e+00 7.560124694934000189e+00 3.933012348961999916e+00 8.476729929924999851e+00 1.748789624219999894e-01 3.673549570850000112e+00 4.247474473008000295e+00 3.935999341361999804e+00 1.568932261409999862e-01 8.378709100727000703e+00 3.902713549058999920e+00 7.766192624055999971e+00 4.278864515439999572e+00 3.695062120139000150e+00 3.888806952456000054e+00 8.492220863876999815e+00 4.007227319232000262e+00 4.009806042203999610e+00 4.081106555518999812e+00 1.944719774039000093e+00 1.938694917377999927e+00 1.979402318880000067e+00 1.943720928399000014e+00 1.986767268132999975e+00 6.240635748284000250e+00 1.954562404784000007e+00 5.878993528537000302e+00 1.997503329271999917e+00 1.908894600106000095e+00 5.790254697568999909e+00 6.327655995379999787e+00 5.868829797752000310e+00 1.971691397639999899e+00 2.040649367064999886e+00 5.832935991777000062e+00 2.013959841980999865e+00 6.307032311791999746e+00 5.850327355569000076e+00 5.916615556883000338e+00 1.969245417263999931e+00 5.868031630934999576e+00 5.837255687303000151e+00 6.255575718957000042e+00 7.765364845082999956e+00 2.095463633592999919e+00 1.788063104884999976e+00 1.318924178479999876e-01 1.830670662219999967e+00 5.805063606817999933e+00 7.766020880539000082e+00 5.680685786123000014e+00 1.704967581250000030e+00 1.217855145959999968e-01 5.826693163320999957e+00 6.005889500717000118e+00 3.933094860927000003e+00 1.858109188877999918e+00 1.675196834829000059e+00 3.923847257894999885e+00 1.827124119779000022e+00 6.034090177989999582e+00 3.867573787092999815e+00 6.020286073758000178e+00 1.698816758346000100e+00 4.005644911987999990e+00 5.737603750929999968e+00 5.852080858689999943e+00 1.802216001647999999e+00 7.030496661400000014e-02 1.664561138875999990e+00 1.954896997772000100e+00 9.845160667300000001e-02 5.792756778524999817e+00 2.097182925570999945e+00 4.003906186762000274e+00 1.791137993890999924e+00 2.047231624940999861e+00 3.863708003648000044e+00 5.929413557612999597e+00 5.978315021990000311e+00 1.460475722500000073e-02 1.701509843163000024e+00 5.858597308482999644e+00 7.720964926140999829e+00 5.931846441322999652e+00 5.789995903583999848e+00 3.815756155901000035e+00 1.473027792542999981e+00 6.054314273722000372e+00 3.770337701696000021e+00 5.921395715252000258e+00 1.951720158244999892e+00 2.111272418256000094e+00 3.749475054188999845e+00 1.981425678247999977e+00 1.997468215699000016e+00 8.071705435864000577e+00 1.966451935228999970e+00 5.969176746844000014e+00 3.758320270646000161e+00 1.920100030793999935e+00 5.812607530508000053e+00 8.077429212509999346e+00 5.854833483645999870e+00 2.055431674888000160e+00 3.864950659952000045e+00 5.938507120569999742e+00 1.900271663875999995e+00 8.050359370549999838e+00 5.687308720653000194e+00 5.718355681817000047e+00 3.680841746946999837e+00 5.866532846758000019e+00 5.954765511758999708e+00 7.975450790981000182e+00