-3.525380782229999750e+04
-3.525303285470000264e+04
-3.525262154300000111e+04
-3.525255807539999660e+04
-3.525270913519999885e+04
-3.525284003729999677e+04
-3.525272342210000352e+04
-3.525254014270000334e+04
-3.525226090729999851e+04
-3.525193703990000358e+04
-3.525237928629999806e+04
-3.525233996859999752e+04
-3.525169795480000175e+04
-3.525147959619999892e+04
-3.525137534410000080e+04
-3.525149333579999802e+04
-3.525133521479999763e+04
-3.525116172769999685e+04
-3.525063791679999849e+04
-3.525065854750000290e+04
-3.525053603499999736e+04
-3.525040573120000045e+04
-3.525014795820000290e+04
-3.524894364050000149e+04
-3.524893471400000271e+04
-3.524922955969999748e+04
-3.524955701799999952e+04
-3.524912236709999706e+04
-3.524939676100000361e+04
-3.524964559429999645e+04
-3.524988261200000125e+04
-3.525020594739999797e+04
-3.525021501900000294e+04
-3.524993049289999908e+04
-3.525031636119999894e+04
-3.525061719370000355e+04
-3.525088270870000269e+04
-3.525155649139999878e+04
-3.525134004930000083e+04
-3.525148368589999882e+04
-3.525164195219999965e+04
-3.525204836149999755e+04
-3.525207261719999951e+04
-3.525237913249999838e+04
-3.525237508279999747e+04
-3.525241230869999708e+04
-3.525259114430000045e+04
-3.525270297430000210e+04
-3.525276757740000176e+04
-3.525276111880000099e+04
-3.525274180289999640e+04
-3.525289117439999973e+04
-3.525316342129999975e+04
-3.525303698830000212e+04
-3.525304199170000356e+04
-3.525280361699999776e+04
-3.525285517229999823e+04
-3.525289475559999846e+04
-3.525292710629999783e+04
-3.525286163449999731e+04
-3.525262484550000227e+04
-3.525258711600000242e+04
-3.525252048910000303e+04
-3.525248688859999675e+04
-3.525251592920000257e+04
-3.525231499279999844e+04
-3.525191062380000221e+04
-3.525208535490000213e+04
-3.525191533090000303e+04
-3.525162857290000102e+04
-3.525128945479999675e+04
-3.525110320420000062e+04
-3.525042577870000241e+04
-3.524960219990000041e+04
-3.524963644460000069e+04
-3.524991764390000026e+04
-3.524964611339999828e+04
-3.524909614169999986e+04
-3.524885894340000232e+04
-3.524915745890000107e+04
-3.524870910810000350e+04
-3.524842619320000085e+04
-3.524906117929999891e+04
-3.524869269650000206e+04
-3.524878834610000195e+04
-3.524893803779999871e+04
-3.524984864899999957e+04
-3.524969582500000251e+04
-3.524982091950000176e+04
-3.525059929230000125e+04
-3.525094041650000145e+04
-3.525081047440000111e+04
-3.525147565410000243e+04
-3.525146668040000077e+04
-3.525140180839999812e+04
-3.525180533920000016e+04
-3.525241407369999797e+04
-3.525201330199999938e+04
-3.525212739790000342e+04
-3.525230921710000257e+04
-3.525262129329999880e+04
-3.525253076110000256e+04
-3.525263638840000203e+04
-3.525270647109999845e+04
-3.525286590230000002e+04
-3.525283464609999646e+04
-3.525285552820000157e+04
-3.525296510349999880e+04
-3.525297035650000180e+04
-3.525286811070000113e+04
-3.525285777270000108e+04
-3.525289236910000182e+04
-3.525288553819999652e+04
-3.525278902609999932e+04
-3.525286365310000110e+04
-3.525283665350000228e+04
-3.525268098599999939e+04
-3.525246538010000222e+04
-3.525246125069999835e+04
-3.525223601380000036e+04
-3.525213817730000301e+04
-3.525200197740000294e+04
-3.525190120369999931e+04
-3.525181542159999663e+04
-3.525147319109999808e+04
-3.525140096210000047e+04
-3.525117026539999642e+04
-3.525119884699999966e+04
-3.525030963119999797e+04
-3.525025936979999824e+04
-3.524950438350000331e+04
-3.524906908670000121e+04
-3.524903328060000058e+04
-3.524893270420000044e+04
-3.524977458630000183e+04
-3.524884383209999942e+04
-3.524923181109999859e+04
-3.524938931379999849e+04
-3.524933951209999941e+04
-3.524919381229999999e+04
-3.524892529320000176e+04
-3.524987573379999958e+04
-3.524972734689999925e+04
-3.524966896219999762e+04
-3.525000356099999772e+04
-3.525086955670000316e+04
-3.525105554619999748e+04
-3.525143397489999916e+04
-3.525162942150000163e+04
-3.525157993549999810e+04
-3.525157538349999959e+04
-3.525170514649999677e+04
-3.525227698960000271e+04
-3.525257670589999907e+04
-3.525244085340000311e+04
-3.525239474579999660e+04
-3.525249866009999823e+04
-3.525268939659999887e+04
-3.525282786540000234e+04
-3.525292107969999779e+04
-3.525282942029999685e+04
-3.525290064200000052e+04
-3.525288909499999863e+04
-3.525307032659999822e+04
-3.525293710619999911e+04
-3.525278484249999747e+04
-3.525276052789999812e+04
-3.525275126820000150e+04
-3.525278230179999809e+04
-3.525280681929999992e+04
-3.525259889030000340e+04
-3.525238960290000250e+04
-3.525233897050000087e+04
-3.525239124009999796e+04
-3.525224496979999822e+04
-3.525183733490000304e+04
-3.525216371519999666e+04
-3.525219794140000158e+04
-3.525189872990000003e+04
-3.525188723970000137e+04
-3.525136381580000307e+04
-3.525046681620000163e+04
-3.525035291750000033e+04
-3.525084068249999837e+04
-3.525062835150000319e+04
-3.524939598629999819e+04
-3.525008650659999694e+04
-3.524993133690000104e+04
-3.524923304569999891e+04
-3.524885769879999862e+04
-3.524938749210000242e+04
-3.524948869830000331e+04
-3.524861313510000036e+04
-3.524927350969999679e+04
-3.524990273349999916e+04
-3.525018796480000310e+04
-3.524990889649999735e+04
-3.525051039969999692e+04
-3.525047415129999717e+04
-3.525035031590000290e+04
-3.525097684789999767e+04
-3.525147104050000053e+04
-3.525173636419999821e+04
-3.525172757909999928e+04
-3.525167981609999697e+04
-3.525187261220000073e+04
-3.525205118860000221e+04
-3.525234368169999652e+04
-3.525235494859999744e+04
-3.525235002949999762e+04
-3.525257899339999858e+04
-3.525277270429999771e+04
-3.525267783829999826e+04
-3.525270072329999675e+04
-3.525275287389999721e+04
-3.525287788339999679e+04
-3.525274445269999705e+04
-3.525274138220000168e+04
-3.525294984020000265e+04
-3.525293670079999720e+04
-3.525277278439999645e+04
-3.525260475869999937e+04
-3.525260270389999641e+04
-3.525266235990000132e+04
-3.525260872940000263e+04
-3.525246139910000056e+04
-3.525259045679999690e+04
-3.525232336870000290e+04
-3.525182025540000177e+04
-3.525183568479999667e+04
-3.525188850320000347e+04
-3.525181938229999651e+04
-3.525166029819999676e+04
-3.525121446660000220e+04
-3.525079351170000155e+04
-3.525088645160000306e+04
-3.525074582979999832e+04
-3.524996997260000353e+04
-3.525007516269999905e+04
-3.524976226260000112e+04
-3.524930494560000079e+04
-3.524938526480000291e+04
-3.524998331150000013e+04
-3.524976863540000340e+04
-3.524955971609999688e+04
-3.524934276639999734e+04
-3.524941083130000334e+04
-3.524972760879999987e+04
-3.524949375670000154e+04
-3.524953701880000153e+04
-3.524987008670000068e+04
-3.525046171380000305e+04
-3.525007222799999727e+04
-3.525035194279999996e+04
-3.525084726680000313e+04
-3.525106198399999994e+04
-3.525158974589999707e+04
-3.525145087249999779e+04
-3.525198801169999933e+04
-3.525201189760000125e+04
-3.525191383189999760e+04
-3.525208157609999762e+04
-3.525240159069999936e+04
-3.525253851459999714e+04
-3.525238872899999842e+04
-3.525238747120000335e+04
-3.525257450780000363e+04
-3.525257517750000261e+04
-3.525258634110000276e+04
-3.525261660410000331e+04
-3.525267154819999996e+04
-3.525267434879999928e+04
-3.525283818559999781e+04
-3.525285590529999899e+04
-3.525284365580000303e+04
-3.525292968619999738e+04
-3.525281568459999835e+04
-3.525251864460000070e+04
-3.525241731779999827e+04
-3.525253987880000204e+04
-3.525240618050000194e+04
-3.525224131559999660e+04
-3.525219719970000006e+04
-3.525218793559999904e+04
-3.525181356799999776e+04
-3.525161679819999699e+04
-3.525177362880000146e+04
-3.525159751339999639e+04
-3.525115584759999911e+04
-3.525089030169999751e+04
-3.525054467730000033e+04
-3.525061055089999718e+04
-3.525078259819999948e+04
-3.525048855080000067e+04
-3.525035908280000149e+04
-3.524988760010000260e+04
-3.524933552369999961e+04
-3.524923281709999719e+04
-3.524965162889999920e+04
-3.524919909010000265e+04
