-1.316016243099999913e-02 -1.241028113899999945e-02 -1.120720853269999984e-01 -6.073066775600000078e-02 -2.503504421799999935e-02 -1.093220622439999984e-01 4.305447904700000078e-02 1.328660867000000002e-02 -5.020220409799999728e-02 -4.665545583899999987e-02 4.898583532800000057e-02 -1.439314423520000052e-01 2.007212834499999890e-02 -9.360368540699999518e-02 -1.359775424090000073e-01 6.886765808299999403e-02 1.263990825100000034e-02 -9.478245773500000582e-02 1.222054066499999973e-02 7.417070481500000201e-02 -9.712669436099999332e-02 2.695118390199999908e-02 -7.194018786000000269e-03 -1.082778334020000066e-01 -1.700602436570000098e-01 5.937656012099999658e-02 3.765035530999999991e-01 4.796664307299999819e-02 -2.941098603100000125e-02 -3.922876398169999890e-01 5.899131390999999905e-03 -1.199651144239999995e-01 -9.348859826600000589e-02 8.663952351000000704e-03 1.253361580900000105e-01 2.944880337860000252e-01 1.242874540090000007e-01 -4.345952834999999848e-03 1.815663248999999924e-01 -6.433054280100000688e-02 -1.356117812569999914e-01 7.695115152000000028e-03 1.282995025499999997e-02 8.398298939999999935e-03 3.722586628830000244e-01 3.714314356400000294e-02 1.157513840400000021e-01 -3.323957926099999766e-02 7.156357798199999842e-02 -1.056578783110000003e-01 1.196966592099999935e-02 1.591238450989999886e-01 3.169979927899999744e-02 -2.202740424499999988e-02 2.955054067000000093e-03 -3.757077520700000117e-02 2.565345717199999862e-02 -1.700852261409999955e-01 -5.714954046100000074e-02 9.219195374899999407e-02 -9.831323366499999938e-02 3.027320700400000161e-02 -2.801113883500000110e-02 -2.655717753290000038e-01 -9.308927256999999233e-03 7.676879846600000168e-02 3.202854526199999663e-02 -6.394356199999999817e-05 3.099831384599999878e-02 -1.265367710929999889e-01 -3.870437557800000122e-02 2.845304142699999969e-02 -4.309104413400000055e-02 9.161755479999999542e-04 2.186719578899999974e-02 -2.334551777000000179e-03 1.584507715460000132e-01 -2.980651673099999829e-02 4.338767815300000052e-02 -1.412300670930000113e-01 8.952338109999999566e-04 9.397977282599999371e-02 -3.559385073079999739e-01 7.679475139899999414e-02 -1.145054972600000054e-02 2.267222346939999911e-01 -6.564125634600000148e-02 5.130969865200000340e-02 3.591357845899999929e-02 8.644090970300000176e-02 -3.231720475999999825e-03 4.627492665699999702e-02 -1.146182912259999936e-01 1.849440465440000125e-01 9.193858781899999499e-02 -3.439210539899999891e-02 -3.944283854800000044e-02 6.867739804599999609e-02 -3.148221873909999857e-01 5.382676821799999706e-02 6.732462878099999826e-02 3.328927058360000024e-01 -3.828715082000000002e-03 8.337702490600000516e-02 1.399828084989999943e-01 -6.621667835999999613e-03 -3.486032174000000192e-03 -1.271422878119999877e-01 2.433063838799999837e-02 -1.566012012499999953e-02 3.037208344400000107e-02 -3.469283499999999934e-04 -1.001376340500000073e-02 1.907937445690000011e-01 -1.821435607200000070e-02 -6.784597011000000066e-02 -1.899391894499999900e-01 1.860056083600000049e-02 -2.930702630899999911e-02 -8.147783674599999582e-02
-4.332136188300000218e-02 2.350741188999999967e-02 -1.784001151619999948e-01 -3.239249162630000178e-01 -1.039481410589999932e-01 -2.386690523899999972e-01 2.913800706019999964e-01 -2.238553338299999890e-02 1.447773037239999949e-01 -2.757741305579999858e-01 2.765589191760000065e-01 -4.746304147029999920e-01 5.086793184499999870e-02 -4.196446092839999920e-01 -2.975143498869999847e-01 3.216965254220000014e-01 5.389648360600000215e-02 -1.312720738160000067e-01 3.235548633600000140e-02 3.068970873979999792e-01 -7.733107663700000689e-02 1.662131362120000122e-01 -4.650615526099999980e-02 -1.827352237190000006e-01 -8.772502933839999573e-01 2.979854938040000234e-01 1.060311365730000066e+00 2.417799427369999865e-01 -2.527401098329999929e-01 -1.709149110610999944e+00 4.494512666799999751e-02 -6.260779825279999544e-01 -5.020976677380000197e-01 1.754583032800000053e-02 9.666089309909999816e-01 1.026437801217999990e+00 6.470843909689999451e-01 3.420118427300000014e-02 6.058569173800000263e-01 -3.864212929949999986e-01 -6.535578767240000087e-01 1.925570807699999998e-02 7.132650153800000614e-02 3.545848727499999881e-02 1.313068787116000058e+00 1.682995852430000105e-01 5.836864198560000050e-01 -3.771173483010000216e-01 1.482753123270000029e-01 -6.036006030670000300e-01 5.656532166000000084e-02 6.196876088730000065e-01 1.471591352259999930e-01 -2.265505923439999902e-01 6.285681218699999684e-02 -1.976289885760000031e-01 1.483563798460000027e-01 -6.842722956279999602e-01 -3.611940888979999764e-01 5.163642846389999708e-01 -3.136931827550000218e-01 2.137164466900000059e-01 -1.484192153040000128e-01 -1.041605099439999904e+00 -1.780287792749999931e-01 3.091234674969999818e-01 1.370279210220000099e-01 2.158340477100000043e-02 1.898621821470000137e-01 -7.385670802489999742e-01 -2.259802299810000081e-01 7.915198612300000658e-02 -2.391832318680000014e-01 -2.731749990189999977e-01 6.297893651899999501e-02 -5.242230730499999880e-02 5.996762180579999768e-01 -2.094416242350000124e-01 2.317681639899999979e-01 -5.113601452579999984e-01 -2.223087185000000021e-02 5.493702195409999600e-01 -1.722237617775000063e+00 3.231800008290000026e-01 -8.066164868899999840e-02 1.180931966453000026e+00 -3.561290737989999955e-01 3.056992791929999953e-01 2.742066061039999947e-01 4.931695918910000143e-01 8.178342705999999684e-03 2.935468879490000238e-01 -6.067036680399999771e-01 9.437361940030000174e-01 3.512021051929999915e-01 -1.649419210230000099e-01 -2.791567738290000045e-01 4.408264097540000037e-01 -1.063585211081000015e+00 2.825855642389999978e-01 3.707781321120000029e-01 1.243697182098999932e+00 -2.797667235299999833e-02 4.676387174100000155e-01 3.898557171670000154e-01 -5.434973686800000092e-02 -3.740733119299999992e-02 -5.345685291570000386e-01 1.499543521639999932e-01 -1.087895512960000005e-01 1.868330407119999925e-01 7.559192060000000145e-04 -1.995054644800000124e-02 5.504920194339999462e-01 -1.413657249130000071e-01 -4.032748374760000143e-01 -6.873322731600000068e-01 6.655553162999999772e-02 -1.725783216560000111e-01 -5.305185808500000322e-01
2.094852733399999931e-02 3.149472130320000174e-01 -2.169571781229999996e-01 -4.414529160960000143e-01 -5.776045769299999882e-02 -4.480100934949999836e-01 5.689420068839999844e-01 -3.140788978380000263e-01 2.045178043489999931e-01 -3.711218527549999813e-01 4.290720662449999945e-01 -6.917336159979999843e-01 -5.361909342300000270e-02 -3.416129036950000253e-01 -2.903325122209999831e-01 3.980113984940000238e-01 6.155774218099999834e-02 -2.716875123029999783e-01 -2.981718090000000029e-03 1.573866495010000088e-01 -7.923587593900000003e-02 1.613500139110000120e-01 -8.411256404700000189e-02 -1.658324269080000135e-01 -1.232512720711999910e+00 3.179755980339999955e-01 -6.842103284000000153e-03 1.707346206910000108e-01 1.392610557879999933e-01 -1.070528031519999979e-01 1.447517074759999967e-01 -8.882827630980000277e-01 -6.981552571999999346e-02 -1.494971096659999943e-01 7.643386803239999860e-01 6.065192479390000280e-01 7.437583273219999791e-01 1.812355584520000118e-01 6.689249275509999704e-01 -4.735137857860000077e-01 -7.416899448889999746e-01 4.916334232949999827e-01 8.842959959700000261e-02 1.693561079860000096e-01 1.018055059182999988e+00 1.898002274030000103e-01 7.286427937749999639e-01 -4.588079261660000241e-01 -1.776368869509999948e-01 -7.786255672920000537e-01 1.832906577089999933e-01 8.222849089900000075e-02 8.674130730300000369e-02 -3.747906462700000274e-01 4.388346601899999894e-02 -2.573310615239999821e-01 3.007128694910000122e-01 -5.086353397780000174e-01 -6.112996825750000029e-01 8.171344949919999712e-01 1.343930628500000085e-02 3.014279916729999953e-01 -9.446474730600000480e-02 -4.285166563919999838e-01 -2.931819203489999803e-01 3.556630592989999951e-01 1.768960682400000095e-01 6.750878266599999455e-02 3.503870069080000094e-01 -8.730539928520000270e-01 -2.664801799379999947e-01 4.219338812500000174e-02 -3.476849930759999818e-01 -8.026481655280000016e-01 1.304725291390000097e-01 -1.794107274789999984e-01 -1.774295892900000157e-02 -4.511393404049999778e-01 2.836265034239999761e-01 -1.586619964840000063e-01 4.491195182100000266e-02 8.107404314149999625e-01 -1.092507286113999943e+00 5.502703354269999902e-01 -1.016779647959999977e-01 9.961011415289999782e-01 -4.334350018979999941e-01 3.801034601639999844e-01 4.597657630770000114e-01 6.770358277119999935e-01 7.684957627199999475e-02 5.035255387670000138e-01 -8.309431057349999650e-01 1.191756001771999918e+00 2.775670581500000109e-02 -3.048208644190000260e-01 -4.433203343279999986e-01 5.516383791740000486e-01 -2.804639767889999802e-01 4.395461238930000181e-01 4.768019251880000198e-01 -6.189977693100000289e-02 -9.264078992299999704e-02 7.043365422749999771e-01 3.655289751400000314e-02 -1.397968633380000103e-01 -2.397356949499999945e-02 -2.845294216370000129e-01 1.956999748059999877e-01 -1.653452979089999886e-01 5.265354508999999794e-01 2.556314520000000159e-02 7.234767787000000172e-02 -9.781956320300000396e-02 -2.573213397010000181e-01 -4.440582887599999751e-01 -2.233633657619999990e-01 6.733610764099999535e-02 -1.723317144969999937e-01 -7.608335476909999784e-01
1.227208790240000014e-01 5.578998114400000041e-01 -2.622623713569999793e-01 -3.828630011599999938e-01 2.405369005299999932e-02 -4.657757090160000168e-01 7.217366256099999600e-01 -5.674629386549999710e-01 1.074805255310000013e-01 -3.181553946019999857e-01 4.738512597219999845e-01 -4.990983506200000197e-01 -2.042404331229999981e-01 -1.142500559530000015e-01 -1.494795308840000114e-01 3.415796343979999872e-01 1.034836330059999976e-01 -3.423907679279999949e-01 3.814588674600000173e-02 -1.077760892769999979e-01 -1.940997817360000099e-01 5.182265645100000290e-02 -1.615993083260000018e-01 4.977373266500000060e-02 -1.125808333648000037e+00 -2.891016925400000104e-02 -1.633978033530999907e+00 -2.785520767160000188e-01 1.011131723427999951e+00 1.321246950394000086e+00 2.412493015949999930e-01 -8.663967656800000139e-01 4.874462638570000172e-01 -4.345337940660000120e-01 -4.241725274500000170e-02 -4.923125880720000125e-01 3.718714677239999822e-01 6.569966323229999849e-01 8.226011000370000437e-01 -2.262802178720000057e-01 -4.400094947529999967e-01 5.831027081949999857e-01 6.079007871099999932e-02 2.839535302699999764e-01 -2.108484747400000137e-01 6.766408311900000416e-02 4.817335376410000203e-01 -8.161659557960000422e-01 -2.912135719460000050e-01 -6.275962208599999981e-01 2.415582715490000032e-01 -5.860823300240000089e-01 -1.140148648540000031e-01 -4.327927888420000091e-01 -1.964174370270000136e-01 -2.023865749500000089e-01 3.113477361979999913e-01 -1.132401074489999965e-01 -6.122003481290000382e-01 7.540520035540000388e-01 1.871666113709999912e-01 2.576590570169999816e-01 7.019357646599999612e-02 8.421548754919999658e-01 -3.254144746370000174e-01 1.998939787029999915e-01 2.200776975809999869e-01 1.245976823330000038e-01 3.954939748390000065e-01 -2.313552834020000115e-01 -1.827332610200000096e-01 -7.673690764200000181e-02 -2.841090726239999809e-01 -6.494439376899999727e-01 1.707188916260000133e-01 -3.267026550389999784e-01 -1.030470334637999974e+00 -6.298667210420000329e-01 1.268303504880000099e-01 2.284668006170000043e-01 1.898144954540000040e-01 6.858362557980000052e-01 5.149610256919999740e-01 4.162799796289999854e-01 -5.273950058000000107e-02 -1.816588075220000043e-01 -3.626487545129999934e-01 1.641932808609999905e-01 1.983269193759999993e-01 5.967721485589999597e-01 2.757742800149999840e-01 3.560068742759999738e-01 -7.289715644119999505e-01 9.291481834389999639e-01 -3.223437293499999967e-01 -4.852872805499999775e-01 -4.584829402150000233e-01 3.805532553639999760e-01 8.341440908410000521e-01 4.255034034330000270e-01 2.677075002889999777e-01 -8.854979287299999946e-01 -1.622923694120000093e-01 6.903659236950000500e-01 -1.783486483720000126e-01 -2.259339704309999974e-01 4.020809654100000047e-02 6.086818908690000418e-01 2.067787576160000085e-01 -1.043413675440000021e-01 4.564079079619999813e-01 6.658902933999999441e-02 1.839684415070000079e-01 -4.647326049739999854e-01 -2.977179269049999855e-01 -1.617763120240000019e-01 9.129209838309999547e-01 4.908707742900000198e-02 7.276913272000000085e-03 -2.186364480009999889e-01
1.043091245790000038e-01 3.848104983330000173e-01 -3.323200890079999748e-01 -2.375248369229999990e-01 2.656984044000000079e-03 -2.675766915819999814e-01 6.461662523340000464e-01 -4.431106622889999791e-01 -1.421516074829999865e-01 -3.262767768789999745e-01 4.349789352639999995e-01 -7.374773708800000382e-02 -2.049816672089999903e-01 -1.081842323579999959e-01 -1.263378716299999940e-02 2.214942964770000022e-01 1.646084936710000002e-01 -2.782109503669999984e-01 2.332685165939999972e-01 -1.151913970529999942e-01 -4.904797678530000149e-01 2.789846896700000009e-02 -2.679951748209999929e-01 3.468534657380000219e-01 -6.134450090349999885e-01 -5.395311483079999748e-01 -1.204742053227999987e+00 -5.412779692050000424e-01 1.000391717072000031e+00 8.658599174269999699e-01 1.797102247039999989e-01 -7.236995050940000507e-01 5.386294788280000523e-01 -7.510111872289999546e-01 -3.535266529769999777e-01 -5.456721026999999946e-01 -3.319075806449999777e-01 1.102653623949999995e+00 1.044790427284999934e+00 -1.108562096899999919e-02 1.926245631969999983e-01 7.099311171100000650e-02 1.257325914970000014e-01 5.401438592249999671e-01 -5.388835856960000337e-01 -1.243108425150000057e-01 -1.020771979809999980e-01 -1.313613786017999940e+00 1.510595269409999997e-01 -2.570549918230000119e-01 1.502384029380000041e-01 -1.611310498069999930e-01 -2.752375877939999826e-01 -3.374933461949999880e-01 -3.872062484139999761e-01 -9.954565717600000196e-02 2.368357941670000133e-01 4.267923453229999775e-01 -2.551310670290000138e-01 2.871387478879999788e-01 -1.320943644919999882e-01 1.351612405179999921e-01 2.839943263670000051e-01 1.105686000640000000e+00 -3.996806299969999920e-01 5.897966987400000277e-02 1.980566446700000038e-01 1.191137919100000025e-01 3.498040768430000225e-01 7.036216076029999655e-01 -1.288999230339999968e-01 -2.081835583620000041e-01 -5.156003778099999685e-02 3.897395329489999893e-01 6.590840434500000455e-02 -4.343518755149999855e-01 -5.816567784609999459e-01 -5.484488741919999466e-01 -1.597417828819999996e-01 9.430393441499999863e-02 3.414919969569999991e-01 2.260538451030000007e-01 1.241056304810000066e+00 5.723178053200000254e-02 -3.848023464099999819e-02 -1.123784624533000098e+00 -1.979447090610000071e-01 -1.019443269939999952e-01 -5.701425142670000223e-01 3.189223474589999996e-01 4.757349951900000096e-01 -2.513560508009999861e-01 -3.934169216899999766e-01 3.605699426890000003e-01 -2.344778515000000008e-01 -5.606227003660000374e-01 -4.077065622350000140e-01 1.817523031399999878e-01 1.545584612420000115e-01 1.962112337989999900e-01 -2.634700591400000041e-02 -3.525979601120000084e-01 -1.641743203849999888e-01 3.961574793820000218e-01 5.231278688399999821e-02 -2.291643818630000051e-01 7.011398509300000026e-02 8.873481640460000319e-01 2.502635524230000241e-01 -4.959961579999999995e-03 -1.664376079809999909e-01 1.100262132659999975e-01 2.243601208490000054e-01 1.554780294299999976e-01 -3.251478432189999768e-01 2.281310293299999847e-02 1.057135842367999956e+00 -8.130863961000000389e-03 1.641501440339999951e-01 6.406726038169999748e-01
-1.288172219840000021e-01 -5.155878388400000206e-02 -3.357388233320000026e-01 -8.030860874900000446e-02 -7.343865907799999870e-02 -1.577997608989999967e-01 4.239024393279999803e-01 -5.207069057500000181e-02 -3.918555842440000214e-01 -4.392982981410000209e-01 4.484930832469999906e-01 2.013425823880000132e-01 4.273710826600000262e-02 -2.930717424600000065e-01 1.787507931129999894e-01 1.029743162959999986e-01 1.024042916200000042e-01 -1.959338822049999929e-01 4.922555428550000056e-01 1.012958204849999932e-01 -7.356589056110000024e-01 7.466399840199999804e-02 -2.368533977060000018e-01 5.431664974650000088e-01 -8.062681301299999548e-02 -9.314538355689999660e-01 3.030913741299999797e-01 -3.285328659399999740e-01 5.312814395070000195e-01 -7.804693883340000360e-01 -7.309527004299999631e-02 -2.637233489590000146e-01 2.139330887979999929e-01 -7.024207050290000032e-01 -2.628022957839999951e-01 6.603037492900000194e-01 -9.378124549170000490e-01 4.792532471609999845e-01 5.517816354250000277e-01 1.986837628329999883e-01 7.215812389860000176e-01 -1.867071789839999940e-01 3.060445055300000106e-01 8.614504432109999499e-01 4.369012527560000025e-01 -2.056217170819999995e-01 -5.895345330410000084e-01 -5.785339622059999520e-01 4.558853086529999765e-01 1.006371958360000041e-01 -3.342021732900000291e-02 8.292242801570000044e-01 -3.012155254850000241e-01 -7.153795972700000005e-02 -1.700922064279999923e-01 -1.616033565099999833e-02 2.323043283260000091e-01 9.187297953609999679e-01 1.297412896559999862e-01 -2.211045860789999928e-01 -2.644428646770000113e-01 -5.671570245000000232e-03 3.697307766019999886e-01 -6.119729711599999900e-02 -4.005423480359999733e-01 -3.708447251999999993e-03 -7.178188982100000559e-02 -5.956983362499999879e-02 3.016147336389999878e-01 9.115879232150000400e-01 -1.006216675019999951e-01 -2.322006057259999867e-01 1.553834924030000064e-01 9.272255889299999554e-01 -7.257718812199999425e-02 -3.280528613570000140e-01 7.982233849630000488e-01 -2.215038456489999974e-01 -3.878440050149999929e-01 -3.100946238999999910e-02 3.251583482459999841e-01 -1.434787610549999870e-01 6.540717330799999951e-01 -1.342322773419999948e-01 -9.552605714799999870e-02 -5.549480433129999613e-01 1.246277043429999953e-01 -1.487615740809999920e-01 -1.008437135879999946e+00 -5.005443530400000007e-02 5.296553185069999836e-01 -8.047672265190000118e-01 1.106460987489999992e-01 -2.179583085610000137e-01 -1.660530053910000137e-01 -4.622876294800000174e-01 -2.636984062509999949e-01 2.611622974299999955e-02 -8.813021152619999743e-01 -8.853939482400000061e-02 -1.798212570159999912e-01 6.130953750090000209e-01 -6.601139564300000095e-02 -2.897974822599999958e-02 3.504209326050000128e-01 -9.332577747199999330e-02 1.105956991080000035e-01 -1.663826382100000098e-02 2.522700511309999838e-01 5.049814135700000234e-02 -5.581000611569999492e-01 1.541630447540000004e-01 2.341362743819999925e-01 6.716023947239999625e-01 -3.377667123679999883e-01 4.821221570200000250e-02 -9.283382749700000436e-02 -1.331494209740000101e-01 8.708712935899999563e-02 2.257272799549999986e-01
-3.526451441580000234e-01 -2.754122108900000088e-01 -2.555843592620000160e-01 1.591935969649999894e-01 -1.578101480430000036e-01 -2.266106248270000068e-01 2.643663906279999920e-01 1.572117238380000004e-01 -4.083227364770000145e-01 -4.915801343419999858e-01 5.777817072019999500e-01 1.673761166659999966e-01 2.853016848509999925e-01 -3.880439737340000139e-01 4.532705138490000230e-01 -7.442489433000000487e-02 -1.422729024870000025e-01 -1.410842795679999873e-01 6.517551346609999907e-01 2.080269203890000029e-01 -5.791747711039999524e-01 4.077745755800000343e-02 -2.476336191500000047e-02 5.498529421329999556e-01 1.716944078629999981e-01 -1.140909233579999960e+00 8.481072824130000409e-01 -2.969352240740000259e-01 1.144287943609999941e-01 -1.280166160353999993e+00 -3.200386206290000146e-01 3.967341990100000104e-01 2.351751996060000016e-01 -3.395867301989999865e-01 3.230722819699999859e-01 1.244669940030999955e+00 -9.172115729759999780e-01 -1.822382743729999977e-01 -9.173972999060000522e-01 6.922704310339999889e-01 6.693086241729999664e-01 3.200527343049999751e-01 3.779592056919999776e-01 7.111554974389999728e-01 8.380640218679999975e-01 -9.994117674499999882e-02 -7.010606660760000386e-01 5.543032538319999647e-01 -6.135446392599999688e-02 3.381286510889999763e-01 -1.609670557919999911e-01 9.424589082490000269e-01 -2.203422062700000073e-01 2.863912290819999873e-01 2.481225246590000044e-01 1.355511700829999944e-01 2.356017300159999883e-01 7.821475068169999600e-01 3.292506957979999815e-01 -5.195598255590000436e-01 1.285146994449999913e-01 -1.607134300389999881e-01 2.779920451310000096e-01 -9.278597574439999551e-01 -2.290508459460000035e-01 -1.525681271730000010e-01 -4.677978469810000206e-01 -2.907655924079999843e-01 1.751384754820000111e-01 2.828945793339999737e-01 -4.939572651000000147e-03 -1.116364977050000040e-01 3.554861782279999938e-01 3.547137639710000179e-01 -1.445110581260000138e-01 1.247820086410000029e-01 1.298939955437000027e+00 1.593400098170000001e-01 -3.412680666139999985e-01 3.542290728170000014e-01 9.115092152400000591e-02 -2.586988160540000248e-01 -5.028334181510000223e-01 -2.421994194140000001e-01 -1.174989925970000015e-01 2.718876845539999754e-01 4.954601048680000175e-01 3.638296671200000332e-02 -3.128080535139999840e-01 -2.867988142460000112e-01 3.135997925869999925e-01 -5.885605344850000087e-01 6.588623397109999447e-01 -6.031627227939999614e-01 -4.924303753220000135e-01 -2.775401356509999973e-01 1.318564708799999964e-02 -1.562413139749999902e-01 -5.133120015359999844e-01 -2.772518634839999940e-01 -2.381518133859999997e-01 4.768548620849999975e-01 7.285033716000000048e-02 -3.729486321059999887e-01 1.615756921700000071e-01 1.455109497679999975e-01 1.950741917459999919e-01 -5.975019691709999581e-01 1.412353302740000094e-01 6.441060328400000090e-02 9.355574699799999727e-02 1.471779749909999935e-01 2.289486427949999903e-01 -5.725520276999999936e-02 -1.964623102820000078e-01 6.305082351599999857e-02 -7.516377681050000481e-01 -2.339493755740000014e-01 -2.096084441209999927e-01 -6.989670548409999684e-01
-3.696792549019999874e-01 -1.906195491959999933e-01 -1.469455715300000131e-01 4.301872780639999783e-01 -1.644118584929999960e-01 -3.709544304990000096e-01 3.402887119910000258e-01 1.003513148619999962e-01 -2.095369837540000113e-01 -4.493058262319999940e-01 6.904941252139999985e-01 -7.297697492400000152e-02 2.670032497459999821e-01 -3.160531218820000210e-01 6.655263785680000099e-01 -2.807377774850000063e-01 -2.961370805610000212e-01 -6.378759710499999624e-02 5.985113834940000155e-01 1.259434949690000083e-01 -1.414620855260000087e-01 -1.160740485350000017e-01 9.032602469799999589e-02 4.622589152809999935e-01 2.662506342320000163e-01 -8.247105723100000008e-01 3.210208244289999846e-01 -1.870307404479999991e-01 -3.331048433700000144e-01 -4.050000840469999974e-01 -3.169678105809999868e-01 5.106859951250000140e-01 6.523916195500000237e-01 2.384496332499999940e-02 8.750303245189999801e-01 6.497785442360000108e-01 -6.276426562939999565e-01 -2.483443736800000079e-01 -1.809558186309000005e+00 6.559856550029999900e-01 3.797386513800000141e-01 2.535500327210000182e-01 1.997128982930000130e-01 3.503335994080000182e-01 6.229286465500000203e-01 -1.853758266849999947e-01 -5.882731644540000193e-01 8.715460354690000022e-01 -7.051770493850000321e-01 4.023125188150000198e-01 -3.550019568100000189e-01 6.079065210199999930e-02 9.500954810299999664e-02 6.035188038630000529e-01 3.254091568019999992e-01 3.372833882140000017e-01 9.071644947199999920e-02 -8.625203963199999657e-02 2.449099171330000047e-01 -6.163199690259999475e-01 5.655137325189999453e-01 -2.139771478889999912e-01 1.057644823390000016e-01 -3.864610172280000255e-01 -4.028207245000000117e-03 -1.891174102819999925e-01 -4.111097090370000040e-01 -4.493689853719999849e-01 -8.900486180500000177e-02 -1.997111910280000013e-01 8.721396168999999421e-02 8.319254046299999483e-02 3.853643615119999866e-01 -3.552700386970000235e-01 -2.354288793410000136e-01 6.489189007550000277e-01 6.315100492649999842e-01 4.779860975019999958e-01 -1.337523238439999873e-01 4.843795005930000008e-01 -3.076986930350000260e-01 -2.641680797529999958e-01 -8.331584256380000220e-01 -2.764633435469999734e-01 -8.691958461399999780e-02 3.848427889880000063e-01 5.361356652130000455e-01 3.276062999500000128e-01 5.976809268420000265e-01 -4.196688870370000046e-01 -1.402596202080000076e-01 6.165277897399999707e-02 9.666208262190000289e-01 -6.729853792429999482e-01 -5.510469570199999501e-01 1.973559986199999866e-02 2.876614736120000071e-01 -3.403116830719999930e-01 5.783193196920000112e-01 -3.841968153859999791e-01 -2.413905187640000005e-01 -3.257144262269999757e-01 1.580039578859999960e-01 -4.771578900160000081e-01 -1.721065260930000063e-01 3.721905462019999833e-01 2.865286539540000121e-01 -3.178698577960000216e-01 2.656529247600000060e-02 2.329961445999999964e-02 7.326862515369999551e-01 9.220782009500000376e-02 9.956815569200000438e-02 -6.889926913110000495e-01 1.585502894530000095e-01 8.525927553100000333e-02 -7.544967152879999972e-01 -1.867605069870000023e-01 -5.169901907680000130e-01 -7.255709016739999573e-01
-3.123958053779999910e-01 5.870167308999999986e-03 -5.264735940299999917e-02 5.441755975750000029e-01 3.317742531400000305e-02 -4.280367496329999799e-01 5.113438833129999583e-01 -3.293778850600000141e-02 1.239903960879999989e-01 -4.227748263259999972e-01 6.445772329879999596e-01 -3.138169971029999838e-01 8.563531027199999812e-02 -2.006579760530000089e-01 6.963387982190000214e-01 -3.323906695689999857e-01 -1.445280143550000118e-01 9.976413281399999777e-02 4.353512505550000133e-01 4.095924456499999700e-02 2.517706379079999723e-01 -3.185337263210000214e-01 -9.715371815199999594e-02 3.999349164739999796e-01 2.443870393450000011e-01 -1.078072566900000057e-01 -6.819885212699999810e-02 4.539205610459999818e-01 -5.512339135339999752e-01 3.253298137469999851e-01 -1.018611790330000016e-01 2.244728211990000000e-01 8.009516340129999579e-01 8.556061988109999739e-01 6.799155242940000399e-01 -7.104783452489999984e-01 -4.854970203389999961e-01 -8.217989552399999897e-02 -5.744569923360000052e-01 1.476469016699999935e-02 -3.561581731469999901e-01 -9.784477331649999998e-01 -1.427867132679999929e-01 1.385497577699999934e-02 -2.856964209700000104e-02 -4.779612509360000039e-01 -2.450828203100000047e-01 1.329507874520000077e-01 -2.949873160850000064e-01 2.576376154580000133e-01 -5.224099247329999640e-01 -1.216050593302999916e+00 4.300973396400000204e-01 5.803320969349999858e-01 5.943494748000000168e-03 5.028707520959999622e-01 -2.333544049969999978e-01 -1.178116806121999982e+00 9.896904819400000053e-02 -5.808987158880000168e-01 3.111247777669999826e-01 -1.249643367280000028e-01 -1.179445446349999954e-01 6.141887993860000172e-01 2.184415482879999981e-01 -8.693539174099999822e-02 1.235558462300000021e-01 -3.557006885569999888e-01 -4.517684423180000075e-01 -3.837839022389999966e-01 8.971396649599999717e-02 2.560394475910000023e-01 2.669467363699999929e-01 -4.157540098020000019e-01 -2.599766825420000149e-01 8.490176086270000422e-01 -7.790853835419999651e-01 5.607288342459999519e-01 3.158365246000000015e-02 -3.251820472299999931e-01 -6.349945232320000077e-01 -2.274810742399999974e-01 8.415995927000000099e-02 -1.647210740549999997e-01 -2.476488506400000011e-02 1.404461148180000118e-01 2.183135631710000080e-01 5.104794475630000106e-01 6.467975049030000312e-01 -4.525922264039999865e-01 -5.311080867649999870e-01 6.886389809549999796e-01 8.110683809559999791e-01 -5.410732254329999602e-01 4.042366783740000136e-01 3.360023670910000093e-01 4.215985316620000090e-01 -4.858189332889999990e-01 7.831747098579999733e-01 -3.515392540980000202e-01 -1.724410369590000103e-01 -2.309579620699999947e-01 1.419047966610000044e-01 -3.861361868939999775e-01 -1.916137243200000118e-02 4.052717244519999928e-01 3.243207708809999756e-01 4.417703486619999897e-01 -1.773012751299999842e-02 -1.142655366939999972e-01 -1.469954142190000035e-01 4.650747624499999844e-02 -6.946738828899999552e-02 -2.737067566700000093e-02 5.320792329650000374e-01 1.451141739569999922e-01 -2.329820182700000075e-02 -4.455019418799999881e-02 -6.277167405250000387e-01 2.895713626509999750e-01