2.091895596025527215e+00 1.126878786334474742e-03 1.163383110298215756e-01 1.126878786334474742e-03 2.484057371461592112e+00 -1.580379614930174648e-01 1.163383110298215756e-01 -1.580379614930174648e-01 5.155445342016837795e-01
2.166273338148151595e+00 7.056267951079557565e-02 7.140569434826725681e-01 7.056267951079557565e-02 4.807802760741660464e+00 -8.409200530960401210e-01 7.140569434826725681e-01 -8.409200530960401210e-01 3.457202609821712902e-01
1.053440272269990263e+00 -1.929673845150224262e-02 1.173091229893236775e+00 -1.929673845150224262e-02 4.877671488286937418e+00 -1.255917230364840487e+00 1.173091229893236775e+00 -1.255917230364840487e+00 -5.830190127463987654e-02
7.081259253763420858e-02 -2.678969171675417149e-01 1.213149330707001372e+00 -2.678969171675417149e-01 4.588793545807882346e+00 -1.395104568512690157e+00 1.213149330707001372e+00 -1.395104568512690157e+00 3.123983758204512462e+00
-1.490081051621271746e-01 -2.253409766172760897e-01 7.904044291942240452e-01 -2.253409766172760897e-01 4.111293362624730996e+00 -1.011574350228005459e+00 7.904044291942240452e-01 -1.011574350228005459e+00 3.776961272270596304e+00
-1.676628746039681372e+00 -9.570576082863314904e-02 2.064563952338976383e-01 -9.570576082863314904e-02 3.864747556071316259e-01 -6.249803524441122082e-01 2.064563952338976383e-01 -6.249803524441122082e-01 -1.928921636534591366e+00
-4.612678572460493953e+00 -9.258515150137350616e-03 -2.504307561476198929e-01 -9.258515150137350616e-03 -4.792344429064632649e+00 -5.521599318084006169e-01 -2.504307561476198929e-01 -5.521599318084006169e-01 -7.909566229296008721e+00
-6.224944607217242520e+00 -1.175580692674825095e-01 -6.095414739026751016e-01 -1.175580692674825095e-01 -7.653721044486403891e+00 -5.056656897924254324e-01 -6.095414739026751016e-01 -5.056656897924254324e-01 -8.919663452182621910e+00
-4.351700540332348766e+00 -2.295958989618574753e-01 -5.183585735501997638e-01 -2.295958989618574753e-01 -6.115014792940534072e+00 -4.889886885775806546e-01 -5.183585735501997638e-01 -4.889886885775806546e-01 -4.426216357307236393e+00
-3.031737939368928103e+00 -1.436881391035142947e-03 -6.084465616907966945e-01 -1.436881391035142947e-03 -3.051290660780263231e+00 -6.504284576202549184e-01 -6.084465616907966945e-01 -6.504284576202549184e-01 -1.111374936152493165e+00
-5.889953865547672862e+00 2.476386446425516471e-03 -1.220427253394584799e+00 2.476386446425516471e-03 -5.641428328838017592e+00 -1.509155122999271403e-01 -1.220427253394584799e+00 -1.509155122999271403e-01 -7.758702785930286616e+00
-6.736289207670663970e+00 -2.301657469291492064e-01 -1.842783158824745637e+00 -2.301657469291492064e-01 -7.237999870804371128e+00 3.489632032365409531e-01 -1.842783158824745637e+00 3.489632032365409531e-01 -1.298434048727015444e+01
-3.822428173754379266e+00 -5.318885836039568549e-01 -2.599747276703130439e+00 -5.318885836039568549e-01 -2.978381607727281111e+00 -1.660098403767726050e-01 -2.599747276703130439e+00 -1.660098403767726050e-01 -9.312073705656960243e+00
-2.680998363652275507e-01 -9.595162123313846214e-01 -2.932592043716851560e+00 -9.595162123313846214e-01 1.753126257933057985e+00 -6.398865185227440300e-01 -2.932592043716851560e+00 -6.398865185227440300e-01 -4.474724512394456788e+00
3.712549590224838436e+00 -1.145035197867799059e+00 -1.872528710368761118e+00 -1.145035197867799059e+00 7.297024180541543892e+00 -7.980839414844774771e-01 -1.872528710368761118e+00 -7.980839414844774771e-01 -1.496527956630170353e+00
6.582255146472865803e+00 -1.214460762112480552e+00 1.360507142660230540e-01 -1.214460762112480552e+00 8.880679637375259006e+00 -7.680495571354726270e-01 1.360507142660230540e-01 -7.680495571354726270e-01 -8.506220212912435352e-02
7.093043578547447936e+00 -1.414414603342911692e+00 1.205879893502540545e+00 -1.414414603342911692e+00 1.109157649623477759e+01 -5.476822506672937019e-01 1.205879893502540545e+00 -5.476822506672937019e-01 -5.724428897052582066e+00
9.339843677224848761e+00 -1.263171876310688946e+00 1.761802340289640778e+00 -1.263171876310688946e+00 9.792743986752411089e+00 -9.954014749339712420e-01 1.761802340289640778e+00 -9.954014749339712420e-01 -7.820313345793241666e+00
1.371921069512467817e+01 -1.455473855259273863e+00 2.051139324042772216e+00 -1.455473855259273863e+00 8.993441669804923322e+00 -1.714127701365562029e+00 2.051139324042772216e+00 -1.714127701365562029e+00 -1.202020726487496027e+00
1.322131661262456959e+01 -2.292408751769329900e+00 1.722119635101715618e+00 -2.292408751769329900e+00 8.501555827090422568e+00 -1.423490725490523134e+00 1.722119635101715618e+00 -1.423490725490523134e+00 1.649845195448158552e+00
8.348124589939228457e+00 -2.522640425569230072e+00 1.008934947435986773e+00 -2.522640425569230072e+00 4.094365074764388268e+00 -2.204462160161027862e-01 1.008934947435986773e+00 -2.204462160161027862e-01 3.273141879345691230e+00
3.255206873674633350e+00 -2.513679958421500160e+00 1.084544328052068352e+00 -2.513679958421500160e+00 1.991479806493214211e+00 5.410821067508454485e-01 1.084544328052068352e+00 5.410821067508454485e-01 -3.574846360504444487e+00
-2.025605067153164185e-01 -2.333109617337133290e+00 1.110736131028232432e+00 -2.333109617337133290e+00 -2.356208129525271033e+00 4.900338325819932894e-01 1.110736131028232432e+00 4.900338325819932894e-01 -1.198105541243591077e+01
-2.295138022771866293e+00 -1.187950265965447505e+00 1.072128446801634993e+00 -1.187950265965447505e+00 -5.039988634113734101e+00 8.718240679356115130e-01 1.072128446801634993e+00 8.718240679356115130e-01 -1.109136986308906359e+01
-1.005667438748023912e+01 -7.862444143472069324e-01 5.481562597149347571e-01 -7.862444143472069324e-01 -1.124404271247661313e+01 2.951686036084393283e+00 5.481562597149347571e-01 2.951686036084393283e+00 -9.300063375764093365e+00
-1.657192126283668898e+01 -1.164464320319545498e+00 -2.259178744919363713e-01 -1.164464320319545498e+00 -1.283470750712703001e+01 2.949687705727516818e+00 -2.259178744919363713e-01 2.949687705727516818e+00 -1.247883839377040793e+01
-1.442688485252379138e+01 -2.407353687914627893e-01 -4.377537129817034023e-01 -2.407353687914627893e-01 -9.538310615178430041e+00 2.631400699622799877e+00 -4.377537129817034023e-01 2.631400699622799877e+00 -1.393501689328285309e+01
-7.954847038661403857e+00 -2.191379162841383399e-01 1.075847652825688616e+00 -2.191379162841383399e-01 -4.872196564328207025e+00 2.980648932935718420e+00 1.075847652825688616e+00 2.980648932935718420e+00 -7.183705829791751540e+00
-4.535036705747454988e+00 -2.497238721125682182e-01 3.910666859798125894e-01 -2.497238721125682182e-01 -6.873484660589947559e+00 3.397444584766073472e+00 3.910666859798125894e-01 3.397444584766073472e+00 -1.088804282281234315e+01
-7.275985664658840335e+00 5.788726278706401995e-01 -1.811663483719673673e+00 5.788726278706401995e-01 -8.266049941837346537e+00 2.979770383648042475e+00 -1.811663483719673673e+00 2.979770383648042475e+00 -1.493239269795839164e+01
-6.328729332510667049e+00 2.625108026563632846e-01 4.316917321834574661e-01 2.625108026563632846e-01 -4.594812995504064190e+00 2.754788052161805112e+00 4.316917321834574661e-01 2.754788052161805112e+00 -1.144319632210989468e+01
-6.198036759278892083e-01 -5.583835978640484532e-01 3.456793023821819411e+00 -5.583835978640484532e-01 1.113544512065023140e+00 3.436055926451440978e+00 3.456793023821819411e+00 3.436055926451440978e+00 -3.569768894177527851e+00
1.184278438949105450e+01 -2.510091437779767287e-01 3.881557568054992302e+00 -2.510091437779767287e-01 4.110441205459527403e+00 2.731756957188704593e+00 3.881557568054992302e+00 2.731756957188704593e+00 2.831429507807841084e+00
1.195066917015135388e+01 -4.770716224514044423e-01 4.953155813146818964e+00 -4.770716224514044423e-01 5.848369408759728216e+00 1.435227125474003884e+00 4.953155813146818964e+00 1.435227125474003884e+00 1.262185865603178136e+00
4.953019520094493089e+00 -1.048931717521306428e+00 4.228095016553455210e+00 -1.048931717521306428e+00 1.300152242767322330e-01 1.027697356060735201e+00 4.228095016553455210e+00 1.027697356060735201e+00 -6.948865577818740924e+00
1.505789746012087926e+00 -5.954630478996634224e-01 2.618947410917883634e+00 -5.954630478996634224e-01 -1.509806373947972791e+00 1.677430207391485961e-01 2.618947410917883634e+00 1.677430207391485961e-01 -7.453321376242970864e+00
-1.961501149544023215e-01 -5.847147203010805150e-01 1.466200765659740002e+00 -5.847147203010805150e-01 -1.127456029777012425e+00 -1.056779246208981449e-01 1.466200765659740002e+00 -1.056779246208981449e-01 2.419768907494293853e+00
-1.862527224197089382e+00 -4.627849621630714116e-01 8.224809607893465158e-01 -4.627849621630714116e-01 -2.514156661808063742e+00 -6.096114141339384895e-01 8.224809607893465158e-01 -6.096114141339384895e-01 4.513279227632726709e+00
-1.641803142306443197e+00 -1.129028968034717639e-01 -7.737551574539554000e-01 -1.129028968034717639e-01 -2.211698141736823775e+00 -8.577973467716951683e-01 -7.737551574539554000e-01 -8.577973467716951683e-01 2.063446965526006593e+00
-8.166695209968926061e-01 -6.269974904163097551e-02 -2.149396559885659919e+00 -6.269974904163097551e-02 -3.214068288020824227e+00 -2.795296665615702447e-01 -2.149396559885659919e+00 -2.795296665615702447e-01 -7.355123112350949732e+00
-7.613226637769449079e-01 -5.697288390119203440e-03 -2.789765815837967011e+00 -5.697288390119203440e-03 -2.733259838916534790e+00 -6.107749781977010045e-02 -2.789765815837967011e+00 -6.107749781977010045e-02 -1.321654029808842701e+01
-1.196359769324765177e+00 4.617650744591902945e-02 -2.371891707636349711e+00 4.617650744591902945e-02 -6.496688798956139488e-01 -1.933346196631465230e-01 -2.371891707636349711e+00 -1.933346196631465230e-01 -1.011568457537314281e+01
4.399681578858826714e-01 1.107392616263997293e-01 -1.743188093482520573e+00 1.107392616263997293e-01 1.451794323054475644e+00 -2.510125561275144412e-01 -1.743188093482520573e+00 -2.510125561275144412e-01 -1.476292121287798853e+00
-1.547152407651994008e-02 -1.381557488966358438e-01 -1.258279602669738262e+00 -1.381557488966358438e-01 1.140681093217809750e+00 -1.849284958179950034e-01 -1.258279602669738262e+00 -1.849284958179950034e-01 -2.937930088743821333e+00
-1.390514722156124483e+00 -3.491251938091437523e-01 -2.590693679090620982e-01 -3.491251938091437523e-01 -3.868281536887437921e-01 -2.599170235076608271e-01 -2.590693679090620982e-01 -2.599170235076608271e-01 -9.375569160395491153e+00
-2.207529691957619722e+00 -2.706221296137208410e-01 3.979828883964875441e-01 -2.706221296137208410e-01 -6.628556467120024775e-01 -4.552920792246248904e-01 3.979828883964875441e-01 -4.552920792246248904e-01 -1.130705233589019443e+01
-2.565418251261373794e-01 -3.757798138563435142e-01 3.755960273281746531e-01 -3.757798138563435142e-01 1.250629743171042696e+00 -1.117503644966711507e+00 3.755960273281746531e-01 -1.117503644966711507e+00 -5.677994825795098066e+00
3.240807171880218718e+00 -6.029293800986509355e-01 3.444381816997822976e-01 -6.029293800986509355e-01 3.467066443339053006e+00 -1.589408826926816731e+00 3.444381816997822976e-01 -1.589408826926816731e+00 4.280286960090549542e+00
6.082717376319235036e+00 -6.211015972766094073e-01 -2.188571309091228434e-01 -6.211015972766094073e-01 4.611194357676707156e+00 -1.737471167235701719e+00 -2.188571309091228434e-01 -1.737471167235701719e+00 5.572243394238027392e+00
6.385925540645032150e+00 -5.124137974827764896e-01 -5.426243487184506664e-01 -5.124137974827764896e-01 5.059671696752200631e+00 -1.650792687408425774e+00 -5.426243487184506664e-01 -1.650792687408425774e+00 -1.544331240567871077e+00
5.739143063932937494e+00 -2.890895243229241185e-01 -5.593730032971709898e-01 -2.890895243229241185e-01 4.401511679234237917e+00 -1.516999570385870300e+00 -5.593730032971709898e-01 -1.516999570385870300e+00 -6.581459064400909220e+00
5.542919432469536112e+00 -7.031096006212965432e-02 -7.046639115148243260e-01 -7.031096006212965432e-02 3.674923892162308636e+00 -1.417802284294232384e+00 -7.046639115148243260e-01 -1.417802284294232384e+00 -5.707991692311900067e+00
5.220920081141655622e+00 -9.365639679663641248e-02 -5.800671527943903616e-01 -9.365639679663641248e-02 3.912951433491374864e+00 -1.212781859705397869e+00 -5.800671527943903616e-01 -1.212781859705397869e+00 -4.651269654410081777e-01
4.224998767867471194e+00 -2.657472673318275191e-01 -1.994806454100887527e-01 -2.657472673318275191e-01 3.651816298123911064e+00 -6.976825562299211470e-01 -1.994806454100887527e-01 -6.976825562299211470e-01 5.298173434528488990e+00
9.591020496115960636e-01 -1.565458591929076992e-01 -2.707387830448645949e-01 -1.565458591929076992e-01 1.422006414802955643e+00 -8.801849102356351651e-02 -2.707387830448645949e-01 -8.801849102356351651e-02 1.167115582351623715e+00
-2.337999993669201526e+00 -3.486025317718709909e-02 -5.138011665655350946e-01 -3.486025317718709909e-02 -1.253834116410215360e+00 6.942324023074828432e-01 -5.138011665655350946e-01 6.942324023074828432e-01 -4.596765889160819185e+00
-4.706028400460086303e+00 -4.816961575056519923e-02 -6.613178728905747539e-01 -4.816961575056519923e-02 -3.134550428342039119e+00 1.388810554214490400e+00 -6.613178728905747539e-01 1.388810554214490400e+00 -4.736318258157427685e+00
-4.638486486879190629e+00 -6.945302636750948222e-02 -6.834568844315329628e-01 -6.945302636750948222e-02 -3.255874028682225418e+00 1.251676524005287172e+00 -6.834568844315329628e-01 1.251676524005287172e+00 1.089611151248120136e+00
-4.522855683118078396e+00 -7.521877772111107419e-02 -1.988775513227885317e-01 -7.521877772111107419e-02 -3.466823297424505679e+00 9.119658872400800975e-01 -1.988775513227885317e-01 9.119658872400800975e-01 4.152821310963166646e+00
-5.153478596138075574e+00 8.326876039775424343e-02 3.003822218173802239e-01 8.326876039775424343e-02 -4.195767922855366372e+00 7.382728972462353489e-01 3.003822218173802239e-01 7.382728972462353489e-01 -3.695482232494184505e+00
-6.156348354999956918e+00 4.030584485834446951e-01 8.985711809346168533e-01 4.030584485834446951e-01 -5.140446458173607347e+00 4.157504029925345734e-01 8.985711809346168533e-01 4.157504029925345734e-01 -1.129511716956240086e+01
-5.125149514780180660e+00 3.924909349720087093e-01 1.583213036837098908e+00 3.924909349720087093e-01 -6.161743594309442074e+00 -8.128574028850384103e-02 1.583213036837098908e+00 -8.128574028850384103e-02 -1.007280675960595495e+01
-7.201091116636662015e-01 3.058410595463603165e-01 1.932005259988549772e+00 3.058410595463603165e-01 -3.820078942628553964e+00 -3.488507692904002644e-01 1.932005259988549772e+00 -3.488507692904002644e-01 -1.887499922375986294e+00
8.308149570670400053e-01 4.275046452085277671e-01 1.532977849872062537e+00 4.275046452085277671e-01 -7.807468048537238303e-01 6.421310644018350666e-02 1.532977849872062537e+00 6.421310644018350666e-02 6.488639033795402966e+00
-9.888794370741351702e-01 3.057339144518606555e-01 8.892016436665692858e-01 3.057339144518606555e-01 -1.310657772437531898e+00 5.031213453984358444e-03 8.892016436665692858e-01 5.031213453984358444e-03 5.622455232862954011e-01
-2.133755306545858765e+00 -2.489058767162616870e-01 4.466226817385171577e-01 -2.489058767162616870e-01 -3.760218507617006267e+00 -2.577538590033889299e-01 4.466226817385171577e-01 -2.577538590033889299e-01 -7.497642285276961971e+00
-9.573434086560024536e-02 -6.580998674057239040e-01 4.218456530400988558e-01 -6.580998674057239040e-01 -2.020713460391758698e+00 -1.821569668128403818e-01 4.218456530400988558e-01 -1.821569668128403818e-01 -5.435185741583156371e+00
1.926383285453177718e+00 -1.026924766301465342e+00 -4.466674948726540029e-01 -1.026924766301465342e+00 3.167686371840560677e-01 -3.453666565593679905e-01 -4.466674948726540029e-01 -3.453666565593679905e-01 8.787468597176928409e-01
1.204599700296921982e+00 -9.728622163233148212e-01 -1.105001115116247101e+00 -9.728622163233148212e-01 1.792407390838552939e+00 -6.180704038418778357e-01 -1.105001115116247101e+00 -6.180704038418778357e-01 5.953697463845914584e+00
1.600784632800647200e+00 -4.265243196218707067e-01 -8.248287284095430216e-01 -4.265243196218707067e-01 2.332570964947015657e+00 9.639062458775456976e-01 -8.248287284095430216e-01 9.639062458775456976e-01 -2.372271037131055138e+00
4.907571155888881820e-01 -3.115929447628618121e-01 -1.197452069143473130e+00 -3.115929447628618121e-01 -4.505879027194324427e-01 1.453447368663518091e+00 -1.197452069143473130e+00 1.453447368663518091e+00 -1.008749045687663504e+01
-3.510801062419777741e-01 7.445753770159680221e-03 -5.353022771325135487e-01 7.445753770159680221e-03 -2.287052875322542533e+00 1.143852960048886924e+00 -5.353022771325135487e-01 1.143852960048886924e+00 -1.374272914231254639e+01
3.112089194031949724e+00 2.497544364225909308e-01 8.964217910478216034e-01 2.497544364225909308e-01 3.031630440215107747e+00 1.093437404423324599e+00 8.964217910478216034e-01 1.093437404423324599e+00 -8.022797853619001884e+00
6.523840431924086580e+00 -3.640175656874283239e-01 8.863990199882327836e-01 -3.640175656874283239e-01 8.375176778558149238e+00 -5.009648912412697497e-01 8.863990199882327836e-01 -5.009648912412697497e-01 3.166267319136215175e+00
5.401375876617389160e+00 -1.236304486388495327e+00 1.316292947296046734e+00 -1.236304486388495327e+00 5.486118915776911464e+00 -2.497392694638359001e-01 1.316292947296046734e+00 -2.497392694638359001e-01 5.715024752023784238e+00
2.975058486616206643e-01 -2.301193811509373521e+00 9.885235738335259592e-01 -2.301193811509373521e+00 1.578510238546825262e+00 9.294952259712397913e-01 9.885235738335259592e-01 9.294952259712397913e-01 -7.059749306727490514e-02
-3.181155415279534604e-01 -3.542773671590938811e+00 4.194100796758363225e-01 -3.542773671590938811e+00 2.967906758657581801e+00 1.572930919570741493e+00 4.194100796758363225e-01 1.572930919570741493e+00 -8.966614170219864732e+00
8.007740891518844162e-01 -5.056616701139789782e+00 -2.710689098543153097e-01 -5.056616701139789782e+00 5.985382159766847288e+00 7.950033061999807193e-01 -2.710689098543153097e-01 7.950033061999807193e-01 -1.399458823323120349e+01
-3.756984829474350196e+00 -4.662149550230020090e+00 -6.594073190646557725e-01 -4.662149550230020090e+00 3.339307654574377615e+00 -1.426884494818134730e+00 -6.594073190646557725e-01 -1.426884494818134730e+00 -1.430336912325959631e+01
-6.290172411473488268e+00 -3.231309478930898926e+00 -9.329405560477467274e-01 -3.231309478930898926e+00 -2.919065471230009923e+00 -2.887580825943709684e+00 -9.329405560477467274e-01 -2.887580825943709684e+00 -1.762765305811969441e+01
-1.835960526836339257e+00 -2.662550566533550711e+00 -1.030392605908313053e+00 -2.662550566533550711e+00 -8.739655206905673879e+00 -4.541967523481322822e+00 -1.030392605908313053e+00 -4.541967523481322822e+00 -1.161724135425514248e+01
-2.850082607062700113e+00 -9.612253542468228718e-01 -1.087452664305145644e+00 -9.612253542468228718e-01 -9.684947256664274917e+00 -5.308410990612238756e+00 -1.087452664305145644e+00 -5.308410990612238756e+00 -9.394735609566968293e+00
-7.313801708676560764e+00 1.650181245940926245e-01 -1.557871464314931398e+00 1.650181245940926245e-01 -6.640733314943326526e+00 -6.216151562505829453e+00 -1.557871464314931398e+00 -6.216151562505829453e+00 -1.534491232109549763e+01
-1.661158232270070423e+00 -6.898254688739176299e-02 -8.838712599249570756e-01 -6.898254688739176299e-02 3.161150093554564222e+00 -5.667019185655824742e+00 -8.838712599249570756e-01 -5.667019185655824742e+00 -1.139926693677757186e+01
1.828363490857452200e+00 5.882201878306381193e-02 2.001993409740742691e-01 5.882201878306381193e-02 5.254491598888014536e+00 -3.587530449511090236e+00 2.001993409740742691e-01 -3.587530449511090236e+00 -5.577086262659266325e+00
2.119069384857966920e+00 -1.738934174335388660e-01 -5.352254359596205768e-01 -1.738934174335388660e-01 -7.287202543286990242e-01 -1.320484915078015131e+00 -5.352254359596205768e-01 -1.320484915078015131e+00 -5.136854456958173998e+00
-2.702170030937805389e+00 6.602017555139227944e-02 -1.353750259926972177e+00 6.602017555139227944e-02 -2.363142138601110886e+00 -1.596017278622152424e-01 -1.353750259926972177e+00 -1.596017278622152424e-01 -8.408883420497945238e+00
-2.432408059091563657e-01 -5.578522655638500360e-01 -7.168282823577558638e-01 -5.578522655638500360e-01 5.682440537200278641e+00 4.800268519766224401e-02 -7.168282823577558638e-01 4.800268519766224401e-02 -7.197978355614493395e+00
1.343398549684919230e+00 -4.328454849807716887e-01 -7.131397314013973032e-01 -4.328454849807716887e-01 7.996242578198139661e+00 5.481218442834475679e-01 -7.131397314013973032e-01 5.481218442834475679e-01 -5.986442007071969051e+00
1.257322664766999276e+00 6.111139140559236349e-01 4.637569818966843505e-01 6.111139140559236349e-01 3.027181776176110617e+00 8.679858376749147730e-01 4.637569818966843505e-01 8.679858376749147730e-01 -1.339336823654024755e+01
2.515480947914980892e+00 1.131820334599890288e+00 9.660747847762537477e-01 1.131820334599890288e+00 6.121622972693840925e-01 1.495404660405924568e+00 9.660747847762537477e-01 1.495404660405924568e+00 -1.246647814388201603e+01
7.564802141268442526e+00 1.048835511440047386e+00 3.209979716377514558e-01 1.048835511440047386e+00 1.052428439497046453e+00 1.868189926482210828e+00 3.209979716377514558e-01 1.868189926482210828e+00 -5.272210884249823870e+00
4.175854914671199403e+00 5.050294160391817222e-01 4.688311329739866529e-01 5.050294160391817222e-01 2.093497519900358039e+00 1.878233145755804634e-01 4.688311329739866529e-01 1.878233145755804634e-01 -2.244295297848942550e+00
1.613924631234591400e+00 3.316474562204852483e-01 9.238921049929827989e-01 3.316474562204852483e-01 3.871526505039450949e+00 -1.755745213334104493e+00 9.238921049929827989e-01 -1.755745213334104493e+00 1.136153012229675685e+00
3.997804621520524737e+00 1.851663192706908267e-01 1.019533084111386989e+00 1.851663192706908267e-01 6.410158890793816511e+00 -1.041191403385927972e+00 1.019533084111386989e+00 -1.041191403385927972e+00 7.058487809944468117e-01
2.891153450678468406e+00 1.653470053935200690e-01 6.779848266883234942e-01 1.653470053935200690e-01 3.651798285778539377e+00 -2.395788373630532431e-01 6.779848266883234942e-01 -2.395788373630532431e-01 -1.039714824849423902e+00
-1.931321493072694739e+00 2.819145716661112799e-01 2.658994961387455280e-01 2.819145716661112799e-01 -1.380146523220959986e+00 -1.327770858940053034e-01 2.658994961387455280e-01 -1.327770858940053034e-01 -3.515394213534615009e+00
-3.833685346150382589e+00 3.565078657992205580e-01 1.182564088223379134e-02 3.565078657992205580e-01 -1.650004746802299582e+00 1.268027239055108113e-01 1.182564088223379134e-02 1.268027239055108113e-01 -1.489167994569172482e+00
-3.626019255748734071e+00 3.466040689060581603e-01 1.503255578907549128e-01 3.466040689060581603e-01 -2.927520050086994896e+00 9.158763946009572388e-02 1.503255578907549128e-01 9.158763946009572388e-02 -2.641588439434069180e+00
-4.405409241434717238e+00 4.262380413529713308e-01 2.195822462639356043e-02 4.262380413529713308e-01 -4.107805994944001782e+00 4.722464657885494521e-01 2.195822462639356043e-02 4.722464657885494521e-01 -4.436380440252802870e+00
-6.102884508616399195e+00 3.756924507616828390e-01 3.396339441392572378e-01 3.756924507616828390e-01 -6.111879422037662657e+00 7.080283826226428934e-01 3.396339441392572378e-01 7.080283826226428934e-01 -7.822343072429424282e+00
-5.815491298763419969e+00 2.081849559191815136e-01 1.216303253554136710e+00 2.081849559191815136e-01 -7.199424603813986856e+00 9.942211798951783308e-01 1.216303253554136710e+00 9.942211798951783308e-01 -8.784039690314520143e+00
-6.314584403507154775e+00 1.228376983180904658e-01 1.541172579495867501e+00 1.228376983180904658e-01 -6.525909056583206969e+00 1.244125815406596613e+00 1.541172579495867501e+00 1.244125815406596613e+00 -4.597568982722984643e+00
-5.336661575432385618e+00 1.269203300101615639e-01 1.623350854541377064e+00 1.269203300101615639e-01 -4.523055190415473881e+00 1.669985267326786538e+00 1.623350854541377064e+00 1.669985267326786538e+00 4.013282571494590223e-01
-3.131239587334693653e+00 -6.122426105990677603e-02 1.538733334983162448e+00 -6.122426105990677603e-02 -2.411136792598558731e+00 2.027678709799195289e+00 1.538733334983162448e+00 2.027678709799195289e+00 1.122780886450063242e+00
-8.756720242766534712e-01 -3.773773580824795193e-01 1.466493463917786677e+00 -3.773773580824795193e-01 1.504181816838808583e+00 1.687573135129878166e+00 1.466493463917786677e+00 1.687573135129878166e+00 -4.377984504431646773e-01
1.826026995261345709e+00 -3.011537829135610966e-01 1.609268783309559803e+00 -3.011537829135610966e-01 2.748420045800751943e+00 1.210208496076666140e+00 1.609268783309559803e+00 1.210208496076666140e+00 -2.405091783884612866e+00
3.652286967561718889e+00 -1.080439591136083677e-01 1.148284539610572086e+00 -1.080439591136083677e-01 2.261867479215978527e+00 1.048299766185074144e+00 1.148284539610572086e+00 1.048299766185074144e+00 -9.311436418974680107e-01
5.030350810029178277e+00 1.587741264098395735e-02 2.721383288425183733e-01 1.587741264098395735e-02 4.538583146688270453e+00 7.697499848434435910e-01 2.721383288425183733e-01 7.697499848434435910e-01 2.495779452437683066e+00
6.559962356314249732e+00 2.936547263210251280e-02 -2.444914247655552153e-01 2.936547263210251280e-02 6.890451345189653409e+00 4.409593533455466452e-01 -2.444914247655552153e-01 4.409593533455466452e-01 3.352909211901872411e+00
5.824540196914683499e+00 -2.574776417476520862e-01 -2.606943315644756343e-01 -2.574776417476520862e-01 5.968602674011191489e+00 -2.007735123105490738e-01 -2.606943315644756343e-01 -2.007735123105490738e-01 -2.398447063392043777e-01
2.578758102162491905e+00 -5.447494563162120773e-01 -3.022567041333660276e-01 -5.447494563162120773e-01 3.153067044859855450e+00 -1.043925965284747459e+00 -3.022567041333660276e-01 -1.043925965284747459e+00 -4.133331403231562007e+00
-3.414913502952802715e-01 -3.827602277985484580e-01 -5.501781364846124456e-01 -3.827602277985484580e-01 1.866476681622438072e+00 -1.222381237342873961e+00 -5.501781364846124456e-01 -1.222381237342873961e+00 -3.470561616840757146e+00
-6.944629464635858618e-01 -1.861419814894813354e-02 -8.572915267432282826e-01 -1.861419814894813354e-02 1.069516316514660836e+00 -8.200192384941058510e-01 -8.572915267432282826e-01 -8.200192384941058510e-01 6.755137050012787192e-01
-1.109509728073910795e+00 1.442647710136862049e-01 -1.034563126277513900e+00 1.442647710136862049e-01 -1.127830419370281057e+00 -6.823204047762678748e-01 -1.034563126277513900e+00 -6.823204047762678748e-01 -6.889401204518722510e-01
-2.698769804326644373e+00 1.055881446255744864e-02 -1.106699141267636133e+00 1.055881446255744864e-02 -2.321661576048488218e+00 -6.362708678715279786e-01 -1.106699141267636133e+00 -6.362708678715279786e-01 -6.660029876955127826e+00
-3.025056604415761630e+00 2.254719335758986754e-02 -1.231503880012683183e+00 2.254719335758986754e-02 -2.141965261466224124e+00 -4.423194249433649583e-01 -1.231503880012683183e+00 -4.423194249433649583e-01 -9.788676123942119389e+00
9.850895223192418504e-02 3.212675813534737745e-01 -1.124293921054114520e+00 3.212675813534737745e-01 -2.308726420928645773e+00 -5.286764417470203314e-01 -1.124293921054114520e+00 -5.286764417470203314e-01 -8.359399468461537808e+00
2.958018961217796505e+00 6.110868875347804652e-01 -6.498882903363912833e-01 6.110868875347804652e-01 -3.060884940265057530e+00 -4.711435103131900171e-01 -6.498882903363912833e-01 -4.711435103131900171e-01 -5.324564903055354570e+00
3.126495099069969363e+00 9.780917742685419913e-01 -4.970892921987001833e-01 9.780917742685419913e-01 -1.230215062752802124e+00 -3.240556590968679540e-01 -4.970892921987001833e-01 -3.240556590968679540e-01 -1.891388583318217131e+00
1.408825049734715451e+00 1.133087086126637111e+00 -3.052996299521860690e-01 1.133087086126637111e+00 1.120835712330272571e+00 -6.851372599751130998e-01 -3.052996299521860690e-01 -6.851372599751130998e-01 -1.998769800514605288e+00
2.684300839967427854e-01 5.041634699110155715e-01 -2.825174343125708143e-01 5.041634699110155715e-01 1.500072447531957787e+00 -7.524076236569230414e-01 -2.825174343125708143e-01 -7.524076236569230414e-01 -3.521808458298572919e+00
5.738289929559738933e-01 2.699968355982214074e-01 -6.393175289387783566e-01 2.699968355982214074e-01 1.805545701913767731e+00 -9.092314519746589330e-01 -6.393175289387783566e-01 -9.092314519746589330e-01 -5.052342442799639066e+00
1.799425622686554149e+00 -1.093162515430604470e-01 -8.268458271182321795e-01 -1.093162515430604470e-01 1.572541515273748747e+00 -1.380210226440270027e+00 -8.268458271182321795e-01 -1.380210226440270027e+00 -3.261954470312582011e+00
1.126784790963561100e+00 -8.905376282765168350e-01 2.461777745938340534e-01 -8.905376282765168350e-01 3.611168107454590270e+00 -1.419255028459085244e+00 2.461777745938340534e-01 -1.419255028459085244e+00 3.196287220523286177e+00
2.313996466614337777e+00 -1.011089847844644396e+00 1.964931084748871015e+00 -1.011089847844644396e+00 3.584365188857693951e+00 -1.158918876523993058e+00 1.964931084748871015e+00 -1.158918876523993058e+00 5.993679535163216165e+00
4.656042835623349418e+00 -6.188659214181380097e-01 1.839643550854143772e+00 -6.188659214181380097e-01 4.345090526502783490e+00 -1.022807620921754257e+00 1.839643550854143772e+00 -1.022807620921754257e+00 -8.847520974432753205e-01
6.609468477857133317e-02 -2.860270090490656392e-01 4.821456454841230865e-01 -2.860270090490656392e-01 6.024226039217085216e+00 -7.651187346495349484e-01 4.821456454841230865e-01 -7.651187346495349484e-01 -7.127625436132955627e+00
-8.603550563325558231e-01 -5.010996761099572039e-01 4.681058801493402921e-01 -5.010996761099572039e-01 2.671829014571524219e+00 -1.366517095203357290e-01 4.681058801493402921e-01 -1.366517095203357290e-01 -8.136901941057468335e+00
-3.858797764818340692e+00 -3.928229586305693743e-01 5.434405622915250422e-01 -3.928229586305693743e-01 -4.603545105089566825e+00 1.047530473975713194e+00 5.434405622915250422e-01 1.047530473975713194e+00 -6.215889586749939966e+00