
40 atoms
15 atom types
   0.0000000000    7.9689773042 xlo xhi
   0.0000000000    7.9689773042 ylo yhi
   0.0000000000    7.9689773042 zlo zhi
   0.0000000000    0.0000000000    0.0000000000 xy xz yz

Atoms # atomic

     1      2   -0.0271667544   -0.0798375723   -0.0663034448
     2      2   -0.0271667544   -0.0798375723    3.9181852073
     3      2   -0.0271667544    3.9046510799   -0.0663034448
     4      2   -0.0271667544    3.9046510799    3.9181852073
     5      2    3.9573218977   -0.0798375723   -0.0663034448
     6      2    3.9573218977   -0.0798375723    3.9181852073
     7      2    3.9573218977    3.9046510799   -0.0663034448
     8      2    3.9573218977    3.9046510799    3.9181852073
     9      9    2.1208846368    2.0144031073    1.8997332217
    10      9    2.1208846368    2.0144031073    5.8842218738
    11      9    6.1053732889    2.0144031073    1.8997332217
    12      9    6.1053732889    5.9988917594    1.8997332217
    13      9    6.1053732889    5.9988917594    5.8842218738
    14     11    2.1208846368    5.9988917594    1.8997332217
    15     11    2.1208846368    5.9988917594    5.8842218738
    16     12    6.1053732889    2.0144031073    5.8842218738
    17     15    1.9922443261    1.9922443261    0.0000000000
    18     15    0.0000000000    1.9922443261    1.9922443261
    19     15    1.9922443261    0.0000000000    1.9922443261
    20     15    1.9922443261    1.9922443261    3.9844886521
    21     15    0.0000000000    1.9922443261    5.9767329782
    22     15    1.9922443261    0.0000000000    5.9767329782
    23     15    1.9922443261    5.9767329782    0.0000000000
    24     15    0.0000000000    5.9767329782    1.9922443261
    25     15    1.9922443261    3.9844886521    1.9922443261
    26     15    1.9922443261    5.9767329782    3.9844886521
    27     15    0.0000000000    5.9767329782    5.9767329782
    28     15    1.9922443261    3.9844886521    5.9767329782
    29     15    5.9767329782    1.9922443261    0.0000000000
    30     15    3.9844886521    1.9922443261    1.9922443261
    31     15    5.9767329782    0.0000000000    1.9922443261
    32     15    5.9767329782    1.9922443261    3.9844886521
    33     15    3.9844886521    1.9922443261    5.9767329782
    34     15    5.9767329782    0.0000000000    5.9767329782
    35     15    5.9767329782    5.9767329782    0.0000000000
    36     15    3.9844886521    5.9767329782    1.9922443261
    37     15    5.9767329782    3.9844886521    1.9922443261
    38     15    5.9767329782    5.9767329782    3.9844886521
    39     15    3.9844886521    5.9767329782    5.9767329782
    40     15    5.9767329782    3.9844886521    5.9767329782
