
5000 atoms
15 atom types
   0.0000000000   39.6735000000 xlo xhi
   0.0000000000   39.6735000000 ylo yhi
   0.0000000000   40.7237000000 zlo zhi
   0.0000000000    0.0000000000    0.0000000000 xy xz yz

Atoms # atomic

     1      2    0.0000000000    0.0000000000    4.2723700000
     2      2    0.0000000000    0.0000000000   20.5618500000
     3      2    0.0000000000    0.0000000000   24.6342200000
     4      2    0.0000000000    0.0000000000   36.8513300000
     5      2    0.0000000000    3.9673500000    0.2000000000
     6      2    0.0000000000    3.9673500000    4.2723700000
     7      2    0.0000000000    3.9673500000    8.3447400000
     8      2    0.0000000000    3.9673500000   12.4171100000
     9      2    0.0000000000    3.9673500000   16.4894800000
    10      2    0.0000000000    3.9673500000   20.5618500000
    11      2    0.0000000000    3.9673500000   32.7789600000
    12      2    0.0000000000    7.9347000000    0.2000000000
    13      2    0.0000000000    7.9347000000    8.3447400000
    14      2    0.0000000000    7.9347000000   12.4171100000
    15      2    0.0000000000    7.9347000000   16.4894800000
    16      2    0.0000000000    7.9347000000   20.5618500000
    17      2    0.0000000000    7.9347000000   24.6342200000
    18      2    0.0000000000    7.9347000000   28.7065900000
    19      2    0.0000000000    7.9347000000   32.7789600000
    20      2    0.0000000000    7.9347000000   36.8513300000
    21      2    0.0000000000   11.9020500000    0.2000000000
    22      2    0.0000000000   11.9020500000    4.2723700000
    23      2    0.0000000000   11.9020500000   12.4171100000
    24      2    0.0000000000   11.9020500000   16.4894800000
    25      2    0.0000000000   11.9020500000   24.6342200000
    26      2    0.0000000000   11.9020500000   28.7065900000
    27      2    0.0000000000   11.9020500000   32.7789600000
    28      2    0.0000000000   11.9020500000   36.8513300000
    29      2    0.0000000000   15.8694000000   12.4171100000
    30      2    0.0000000000   15.8694000000   24.6342200000
    31      2    0.0000000000   15.8694000000   28.7065900000
    32      2    0.0000000000   15.8694000000   32.7789600000
    33      2    0.0000000000   15.8694000000   36.8513300000
    34      2    0.0000000000   19.8367500000    0.2000000000
    35      2    0.0000000000   19.8367500000    8.3447400000
    36      2    0.0000000000   19.8367500000   12.4171100000
    37      2    0.0000000000   19.8367500000   24.6342200000
    38      2    0.0000000000   19.8367500000   32.7789600000
    39      2    0.0000000000   23.8041000000   12.4171100000
    40      2    0.0000000000   23.8041000000   16.4894800000
    41      2    0.0000000000   23.8041000000   20.5618500000
    42      2    0.0000000000   23.8041000000   24.6342200000
    43      2    0.0000000000   23.8041000000   28.7065900000
    44      2    0.0000000000   23.8041000000   36.8513300000
    45      2    0.0000000000   27.7714500000    0.2000000000
    46      2    0.0000000000   27.7714500000   12.4171100000
    47      2    0.0000000000   27.7714500000   16.4894800000
    48      2    0.0000000000   27.7714500000   20.5618500000
    49      2    0.0000000000   27.7714500000   28.7065900000
    50      2    0.0000000000   27.7714500000   32.7789600000
    51      2    0.0000000000   31.7388000000    4.2723700000
    52      2    0.0000000000   31.7388000000    8.3447400000
    53      2    0.0000000000   31.7388000000   12.4171100000
    54      2    0.0000000000   31.7388000000   16.4894800000
    55      2    0.0000000000   31.7388000000   20.5618500000
    56      2    0.0000000000   31.7388000000   24.6342200000
    57      2    0.0000000000   31.7388000000   28.7065900000
    58      2    0.0000000000   31.7388000000   32.7789600000
    59      2    0.0000000000   35.7061500000    0.2000000000
    60      2    0.0000000000   35.7061500000    4.2723700000
    61      2    0.0000000000   35.7061500000   12.4171100000
    62      2    0.0000000000   35.7061500000   24.6342200000
    63      2    3.9673500000    0.0000000000    4.2723700000
    64      2    3.9673500000    0.0000000000   12.4171100000
    65      2    3.9673500000    0.0000000000   16.4894800000
    66      2    3.9673500000    0.0000000000   20.5618500000
    67      2    3.9673500000    0.0000000000   28.7065900000
    68      2    3.9673500000    0.0000000000   36.8513300000
    69      2    3.9673500000    3.9673500000    0.2000000000
    70      2    3.9673500000    3.9673500000    4.2723700000
    71      2    3.9673500000    3.9673500000   16.4894800000
    72      2    3.9673500000    3.9673500000   20.5618500000
    73      2    3.9673500000    3.9673500000   28.7065900000
    74      2    3.9673500000    3.9673500000   32.7789600000
    75      2    3.9673500000    7.9347000000    4.2723700000
    76      2    3.9673500000    7.9347000000    8.3447400000
    77      2    3.9673500000    7.9347000000   16.4894800000
    78      2    3.9673500000    7.9347000000   24.6342200000
    79      2    3.9673500000   11.9020500000    0.2000000000
    80      2    3.9673500000   11.9020500000    4.2723700000
    81      2    3.9673500000   11.9020500000   16.4894800000
    82      2    3.9673500000   11.9020500000   24.6342200000
    83      2    3.9673500000   15.8694000000    0.2000000000
    84      2    3.9673500000   15.8694000000    8.3447400000
    85      2    3.9673500000   15.8694000000   20.5618500000
    86      2    3.9673500000   15.8694000000   28.7065900000
    87      2    3.9673500000   15.8694000000   36.8513300000
    88      2    3.9673500000   19.8367500000    0.2000000000
    89      2    3.9673500000   19.8367500000    4.2723700000
    90      2    3.9673500000   19.8367500000   12.4171100000
    91      2    3.9673500000   19.8367500000   28.7065900000
    92      2    3.9673500000   23.8041000000    0.2000000000
    93      2    3.9673500000   23.8041000000    8.3447400000
    94      2    3.9673500000   23.8041000000   16.4894800000
    95      2    3.9673500000   23.8041000000   28.7065900000
    96      2    3.9673500000   27.7714500000    0.2000000000
    97      2    3.9673500000   27.7714500000    8.3447400000
    98      2    3.9673500000   27.7714500000   24.6342200000
    99      2    3.9673500000   27.7714500000   28.7065900000
   100      2    3.9673500000   27.7714500000   32.7789600000
   101      2    3.9673500000   27.7714500000   36.8513300000
   102      2    3.9673500000   31.7388000000    4.2723700000
   103      2    3.9673500000   31.7388000000   20.5618500000
   104      2    3.9673500000   31.7388000000   36.8513300000
   105      2    3.9673500000   35.7061500000    0.2000000000
   106      2    3.9673500000   35.7061500000   20.5618500000
   107      2    3.9673500000   35.7061500000   24.6342200000
   108      2    3.9673500000   35.7061500000   32.7789600000
   109      2    7.9347000000    0.0000000000    8.3447400000
   110      2    7.9347000000    0.0000000000   20.5618500000
   111      2    7.9347000000    0.0000000000   36.8513300000
   112      2    7.9347000000    3.9673500000    0.2000000000
   113      2    7.9347000000    3.9673500000   12.4171100000
   114      2    7.9347000000    3.9673500000   32.7789600000
   115      2    7.9347000000    7.9347000000    0.2000000000
   116      2    7.9347000000    7.9347000000    4.2723700000
   117      2    7.9347000000    7.9347000000    8.3447400000
   118      2    7.9347000000    7.9347000000   12.4171100000
   119      2    7.9347000000    7.9347000000   36.8513300000
   120      2    7.9347000000   11.9020500000    8.3447400000
   121      2    7.9347000000   11.9020500000   16.4894800000
   122      2    7.9347000000   15.8694000000    0.2000000000
   123      2    7.9347000000   15.8694000000    4.2723700000
   124      2    7.9347000000   15.8694000000    8.3447400000
   125      2    7.9347000000   15.8694000000   16.4894800000
   126      2    7.9347000000   15.8694000000   32.7789600000
   127      2    7.9347000000   15.8694000000   36.8513300000
   128      2    7.9347000000   19.8367500000    4.2723700000
   129      2    7.9347000000   19.8367500000   20.5618500000
   130      2    7.9347000000   19.8367500000   28.7065900000
   131      2    7.9347000000   19.8367500000   32.7789600000
   132      2    7.9347000000   23.8041000000    0.2000000000
   133      2    7.9347000000   23.8041000000   16.4894800000
   134      2    7.9347000000   23.8041000000   20.5618500000
   135      2    7.9347000000   23.8041000000   28.7065900000
   136      2    7.9347000000   23.8041000000   32.7789600000
   137      2    7.9347000000   23.8041000000   36.8513300000
   138      2    7.9347000000   27.7714500000   20.5618500000
   139      2    7.9347000000   27.7714500000   24.6342200000
   140      2    7.9347000000   27.7714500000   28.7065900000
   141      2    7.9347000000   27.7714500000   32.7789600000
   142      2    7.9347000000   27.7714500000   36.8513300000
   143      2    7.9347000000   31.7388000000    0.2000000000
   144      2    7.9347000000   31.7388000000    8.3447400000
   145      2    7.9347000000   31.7388000000   16.4894800000
   146      2    7.9347000000   31.7388000000   20.5618500000
   147      2    7.9347000000   31.7388000000   28.7065900000
   148      2    7.9347000000   35.7061500000    0.2000000000
   149      2    7.9347000000   35.7061500000    8.3447400000
   150      2    7.9347000000   35.7061500000   20.5618500000
   151      2    7.9347000000   35.7061500000   28.7065900000
   152      2   11.9020500000    0.0000000000    4.2723700000
   153      2   11.9020500000    0.0000000000   12.4171100000
   154      2   11.9020500000    0.0000000000   16.4894800000
   155      2   11.9020500000    0.0000000000   28.7065900000
   156      2   11.9020500000    0.0000000000   32.7789600000
   157      2   11.9020500000    0.0000000000   36.8513300000
   158      2   11.9020500000    3.9673500000    0.2000000000
   159      2   11.9020500000    3.9673500000   16.4894800000
   160      2   11.9020500000    3.9673500000   20.5618500000
   161      2   11.9020500000    3.9673500000   24.6342200000
   162      2   11.9020500000    3.9673500000   36.8513300000
   163      2   11.9020500000    7.9347000000    0.2000000000
   164      2   11.9020500000    7.9347000000    8.3447400000
   165      2   11.9020500000    7.9347000000   12.4171100000
   166      2   11.9020500000   11.9020500000    0.2000000000
   167      2   11.9020500000   11.9020500000   16.4894800000
   168      2   11.9020500000   11.9020500000   20.5618500000
   169      2   11.9020500000   11.9020500000   28.7065900000
   170      2   11.9020500000   11.9020500000   36.8513300000
   171      2   11.9020500000   15.8694000000    0.2000000000
   172      2   11.9020500000   15.8694000000    4.2723700000
   173      2   11.9020500000   15.8694000000   24.6342200000
   174      2   11.9020500000   15.8694000000   28.7065900000
   175      2   11.9020500000   15.8694000000   36.8513300000
   176      2   11.9020500000   19.8367500000    0.2000000000
   177      2   11.9020500000   19.8367500000    4.2723700000
   178      2   11.9020500000   19.8367500000    8.3447400000
   179      2   11.9020500000   19.8367500000   12.4171100000
   180      2   11.9020500000   19.8367500000   16.4894800000
   181      2   11.9020500000   19.8367500000   32.7789600000
   182      2   11.9020500000   19.8367500000   36.8513300000
   183      2   11.9020500000   23.8041000000    0.2000000000
   184      2   11.9020500000   23.8041000000    8.3447400000
   185      2   11.9020500000   23.8041000000   12.4171100000
   186      2   11.9020500000   23.8041000000   20.5618500000
   187      2   11.9020500000   23.8041000000   24.6342200000
   188      2   11.9020500000   23.8041000000   28.7065900000
   189      2   11.9020500000   23.8041000000   32.7789600000
   190      2   11.9020500000   27.7714500000    0.2000000000
   191      2   11.9020500000   27.7714500000    4.2723700000
   192      2   11.9020500000   27.7714500000   16.4894800000
   193      2   11.9020500000   27.7714500000   20.5618500000
   194      2   11.9020500000   27.7714500000   36.8513300000
   195      2   11.9020500000   31.7388000000   12.4171100000
   196      2   11.9020500000   31.7388000000   16.4894800000
   197      2   11.9020500000   31.7388000000   24.6342200000
   198      2   11.9020500000   35.7061500000   16.4894800000
   199      2   11.9020500000   35.7061500000   24.6342200000
   200      2   11.9020500000   35.7061500000   28.7065900000
   201      2   15.8694000000    0.0000000000    4.2723700000
   202      2   15.8694000000    0.0000000000    8.3447400000
   203      2   15.8694000000    0.0000000000   32.7789600000
   204      2   15.8694000000    3.9673500000    4.2723700000
   205      2   15.8694000000    3.9673500000   32.7789600000
   206      2   15.8694000000    7.9347000000   12.4171100000
   207      2   15.8694000000    7.9347000000   16.4894800000
   208      2   15.8694000000    7.9347000000   24.6342200000
   209      2   15.8694000000    7.9347000000   32.7789600000
   210      2   15.8694000000    7.9347000000   36.8513300000
   211      2   15.8694000000   11.9020500000    4.2723700000
   212      2   15.8694000000   11.9020500000    8.3447400000
   213      2   15.8694000000   11.9020500000   36.8513300000
   214      2   15.8694000000   15.8694000000    4.2723700000
   215      2   15.8694000000   15.8694000000   12.4171100000
   216      2   15.8694000000   15.8694000000   16.4894800000
   217      2   15.8694000000   15.8694000000   28.7065900000
   218      2   15.8694000000   15.8694000000   32.7789600000
   219      2   15.8694000000   15.8694000000   36.8513300000
   220      2   15.8694000000   19.8367500000    0.2000000000
   221      2   15.8694000000   19.8367500000    8.3447400000
   222      2   15.8694000000   19.8367500000   16.4894800000
   223      2   15.8694000000   19.8367500000   24.6342200000
   224      2   15.8694000000   19.8367500000   28.7065900000
   225      2   15.8694000000   19.8367500000   36.8513300000
   226      2   15.8694000000   23.8041000000    8.3447400000
   227      2   15.8694000000   23.8041000000   20.5618500000
   228      2   15.8694000000   23.8041000000   24.6342200000
   229      2   15.8694000000   23.8041000000   28.7065900000
   230      2   15.8694000000   23.8041000000   32.7789600000
   231      2   15.8694000000   27.7714500000    0.2000000000
   232      2   15.8694000000   27.7714500000    4.2723700000
   233      2   15.8694000000   27.7714500000   12.4171100000
   234      2   15.8694000000   27.7714500000   20.5618500000
   235      2   15.8694000000   27.7714500000   28.7065900000
   236      2   15.8694000000   27.7714500000   36.8513300000
   237      2   15.8694000000   31.7388000000    4.2723700000
   238      2   15.8694000000   31.7388000000    8.3447400000
   239      2   15.8694000000   31.7388000000   12.4171100000
   240      2   15.8694000000   31.7388000000   28.7065900000
   241      2   15.8694000000   35.7061500000   12.4171100000
   242      2   15.8694000000   35.7061500000   16.4894800000
   243      2   15.8694000000   35.7061500000   20.5618500000
   244      2   15.8694000000   35.7061500000   24.6342200000
   245      2   15.8694000000   35.7061500000   28.7065900000
   246      2   15.8694000000   35.7061500000   32.7789600000
   247      2   19.8367500000    0.0000000000   20.5618500000
   248      2   19.8367500000    0.0000000000   36.8513300000
   249      2   19.8367500000    3.9673500000    0.2000000000
   250      2   19.8367500000    3.9673500000    4.2723700000
   251      2   19.8367500000    3.9673500000   12.4171100000
   252      2   19.8367500000    3.9673500000   20.5618500000
   253      2   19.8367500000    3.9673500000   32.7789600000
   254      2   19.8367500000    7.9347000000   12.4171100000
   255      2   19.8367500000    7.9347000000   16.4894800000
   256      2   19.8367500000    7.9347000000   20.5618500000
   257      2   19.8367500000    7.9347000000   24.6342200000
   258      2   19.8367500000    7.9347000000   28.7065900000
   259      2   19.8367500000    7.9347000000   36.8513300000
   260      2   19.8367500000   11.9020500000    4.2723700000
   261      2   19.8367500000   11.9020500000   12.4171100000
   262      2   19.8367500000   11.9020500000   16.4894800000
   263      2   19.8367500000   11.9020500000   20.5618500000
   264      2   19.8367500000   11.9020500000   36.8513300000
   265      2   19.8367500000   15.8694000000    4.2723700000
   266      2   19.8367500000   15.8694000000    8.3447400000
   267      2   19.8367500000   15.8694000000   16.4894800000
   268      2   19.8367500000   15.8694000000   36.8513300000
   269      2   19.8367500000   19.8367500000    0.2000000000
   270      2   19.8367500000   19.8367500000   12.4171100000
   271      2   19.8367500000   19.8367500000   16.4894800000
   272      2   19.8367500000   19.8367500000   20.5618500000
   273      2   19.8367500000   19.8367500000   24.6342200000
   274      2   19.8367500000   19.8367500000   28.7065900000
   275      2   19.8367500000   23.8041000000    0.2000000000
   276      2   19.8367500000   23.8041000000    4.2723700000
   277      2   19.8367500000   23.8041000000   20.5618500000
   278      2   19.8367500000   27.7714500000    4.2723700000
   279      2   19.8367500000   27.7714500000    8.3447400000
   280      2   19.8367500000   27.7714500000   12.4171100000
   281      2   19.8367500000   27.7714500000   16.4894800000
   282      2   19.8367500000   27.7714500000   20.5618500000
   283      2   19.8367500000   27.7714500000   28.7065900000
   284      2   19.8367500000   27.7714500000   32.7789600000
   285      2   19.8367500000   31.7388000000    4.2723700000
   286      2   19.8367500000   31.7388000000   12.4171100000
   287      2   19.8367500000   31.7388000000   16.4894800000
   288      2   19.8367500000   31.7388000000   24.6342200000
   289      2   19.8367500000   31.7388000000   28.7065900000
   290      2   19.8367500000   31.7388000000   32.7789600000
   291      2   19.8367500000   35.7061500000    0.2000000000
   292      2   19.8367500000   35.7061500000   12.4171100000
   293      2   19.8367500000   35.7061500000   16.4894800000
   294      2   19.8367500000   35.7061500000   20.5618500000
   295      2   19.8367500000   35.7061500000   24.6342200000
   296      2   19.8367500000   35.7061500000   36.8513300000
   297      2   23.8041000000    0.0000000000    0.2000000000
   298      2   23.8041000000    0.0000000000    8.3447400000
   299      2   23.8041000000    0.0000000000   16.4894800000
   300      2   23.8041000000    0.0000000000   28.7065900000
   301      2   23.8041000000    0.0000000000   32.7789600000
   302      2   23.8041000000    3.9673500000    4.2723700000
   303      2   23.8041000000    3.9673500000   12.4171100000
   304      2   23.8041000000    3.9673500000   16.4894800000
   305      2   23.8041000000    3.9673500000   32.7789600000
   306      2   23.8041000000    3.9673500000   36.8513300000
   307      2   23.8041000000    7.9347000000    4.2723700000
   308      2   23.8041000000    7.9347000000   16.4894800000
   309      2   23.8041000000    7.9347000000   20.5618500000
   310      2   23.8041000000    7.9347000000   36.8513300000
   311      2   23.8041000000   11.9020500000   16.4894800000
   312      2   23.8041000000   11.9020500000   28.7065900000
   313      2   23.8041000000   11.9020500000   36.8513300000
   314      2   23.8041000000   15.8694000000   12.4171100000
   315      2   23.8041000000   15.8694000000   28.7065900000
   316      2   23.8041000000   15.8694000000   36.8513300000
   317      2   23.8041000000   19.8367500000    0.2000000000
   318      2   23.8041000000   19.8367500000   16.4894800000
   319      2   23.8041000000   19.8367500000   28.7065900000
   320      2   23.8041000000   19.8367500000   32.7789600000
   321      2   23.8041000000   19.8367500000   36.8513300000
   322      2   23.8041000000   23.8041000000    8.3447400000
   323      2   23.8041000000   23.8041000000   12.4171100000
   324      2   23.8041000000   23.8041000000   16.4894800000
   325      2   23.8041000000   23.8041000000   24.6342200000
   326      2   23.8041000000   27.7714500000   12.4171100000
   327      2   23.8041000000   27.7714500000   20.5618500000
   328      2   23.8041000000   27.7714500000   28.7065900000
   329      2   23.8041000000   27.7714500000   32.7789600000
   330      2   23.8041000000   27.7714500000   36.8513300000
   331      2   23.8041000000   31.7388000000    8.3447400000
   332      2   23.8041000000   31.7388000000   12.4171100000
   333      2   23.8041000000   31.7388000000   32.7789600000
   334      2   23.8041000000   35.7061500000    0.2000000000
   335      2   23.8041000000   35.7061500000    4.2723700000
   336      2   23.8041000000   35.7061500000    8.3447400000
   337      2   23.8041000000   35.7061500000   12.4171100000
   338      2   23.8041000000   35.7061500000   20.5618500000
   339      2   23.8041000000   35.7061500000   36.8513300000
   340      2   27.7714500000    0.0000000000   12.4171100000
   341      2   27.7714500000    0.0000000000   20.5618500000
   342      2   27.7714500000    0.0000000000   24.6342200000
   343      2   27.7714500000    0.0000000000   28.7065900000
   344      2   27.7714500000    0.0000000000   36.8513300000
   345      2   27.7714500000    3.9673500000    4.2723700000
   346      2   27.7714500000    3.9673500000    8.3447400000
   347      2   27.7714500000    3.9673500000   12.4171100000
   348      2   27.7714500000    3.9673500000   16.4894800000
   349      2   27.7714500000    3.9673500000   20.5618500000
   350      2   27.7714500000    3.9673500000   32.7789600000
   351      2   27.7714500000    3.9673500000   36.8513300000
   352      2   27.7714500000    7.9347000000    0.2000000000
   353      2   27.7714500000    7.9347000000    4.2723700000
   354      2   27.7714500000    7.9347000000   12.4171100000
   355      2   27.7714500000    7.9347000000   20.5618500000
   356      2   27.7714500000    7.9347000000   24.6342200000
   357      2   27.7714500000    7.9347000000   28.7065900000
   358      2   27.7714500000    7.9347000000   36.8513300000
   359      2   27.7714500000   11.9020500000    0.2000000000
   360      2   27.7714500000   11.9020500000    4.2723700000
   361      2   27.7714500000   11.9020500000   16.4894800000
   362      2   27.7714500000   11.9020500000   24.6342200000
   363      2   27.7714500000   11.9020500000   28.7065900000
   364      2   27.7714500000   15.8694000000    0.2000000000
   365      2   27.7714500000   15.8694000000    4.2723700000
   366      2   27.7714500000   15.8694000000   16.4894800000
   367      2   27.7714500000   15.8694000000   24.6342200000
   368      2   27.7714500000   15.8694000000   32.7789600000
   369      2   27.7714500000   19.8367500000    0.2000000000
   370      2   27.7714500000   19.8367500000   16.4894800000
   371      2   27.7714500000   19.8367500000   20.5618500000
   372      2   27.7714500000   19.8367500000   24.6342200000
   373      2   27.7714500000   19.8367500000   32.7789600000
   374      2   27.7714500000   19.8367500000   36.8513300000
   375      2   27.7714500000   23.8041000000    4.2723700000
   376      2   27.7714500000   23.8041000000   12.4171100000
   377      2   27.7714500000   23.8041000000   16.4894800000
   378      2   27.7714500000   23.8041000000   20.5618500000
   379      2   27.7714500000   23.8041000000   36.8513300000
   380      2   27.7714500000   27.7714500000    0.2000000000
   381      2   27.7714500000   27.7714500000    4.2723700000
   382      2   27.7714500000   27.7714500000   12.4171100000
   383      2   27.7714500000   27.7714500000   20.5618500000
   384      2   27.7714500000   27.7714500000   24.6342200000
   385      2   27.7714500000   27.7714500000   32.7789600000
   386      2   27.7714500000   31.7388000000    8.3447400000
   387      2   27.7714500000   31.7388000000   12.4171100000
   388      2   27.7714500000   31.7388000000   20.5618500000
   389      2   27.7714500000   35.7061500000    0.2000000000
   390      2   27.7714500000   35.7061500000    4.2723700000
   391      2   27.7714500000   35.7061500000   28.7065900000
   392      2   27.7714500000   35.7061500000   32.7789600000
   393      2   27.7714500000   35.7061500000   36.8513300000
   394      2   31.7388000000    0.0000000000    0.2000000000
   395      2   31.7388000000    0.0000000000    8.3447400000
   396      2   31.7388000000    0.0000000000   36.8513300000
   397      2   31.7388000000    3.9673500000    4.2723700000
   398      2   31.7388000000    3.9673500000    8.3447400000
   399      2   31.7388000000    3.9673500000   20.5618500000
   400      2   31.7388000000    3.9673500000   28.7065900000
   401      2   31.7388000000    3.9673500000   36.8513300000
   402      2   31.7388000000    7.9347000000    0.2000000000
   403      2   31.7388000000    7.9347000000    8.3447400000
   404      2   31.7388000000    7.9347000000   24.6342200000
   405      2   31.7388000000    7.9347000000   32.7789600000
   406      2   31.7388000000   11.9020500000   12.4171100000
   407      2   31.7388000000   11.9020500000   16.4894800000
   408      2   31.7388000000   11.9020500000   24.6342200000
   409      2   31.7388000000   11.9020500000   28.7065900000
   410      2   31.7388000000   11.9020500000   36.8513300000
   411      2   31.7388000000   15.8694000000    0.2000000000
   412      2   31.7388000000   15.8694000000    4.2723700000
   413      2   31.7388000000   15.8694000000   12.4171100000
   414      2   31.7388000000   15.8694000000   16.4894800000
   415      2   31.7388000000   15.8694000000   36.8513300000
   416      2   31.7388000000   19.8367500000    0.2000000000
   417      2   31.7388000000   19.8367500000    4.2723700000
   418      2   31.7388000000   19.8367500000   12.4171100000
   419      2   31.7388000000   19.8367500000   20.5618500000
   420      2   31.7388000000   19.8367500000   24.6342200000
   421      2   31.7388000000   19.8367500000   32.7789600000
   422      2   31.7388000000   19.8367500000   36.8513300000
   423      2   31.7388000000   23.8041000000    8.3447400000
   424      2   31.7388000000   23.8041000000   20.5618500000
   425      2   31.7388000000   27.7714500000    4.2723700000
   426      2   31.7388000000   27.7714500000    8.3447400000
   427      2   31.7388000000   27.7714500000   16.4894800000
   428      2   31.7388000000   27.7714500000   28.7065900000
   429      2   31.7388000000   27.7714500000   36.8513300000
   430      2   31.7388000000   31.7388000000    8.3447400000
   431      2   31.7388000000   31.7388000000   16.4894800000
   432      2   31.7388000000   31.7388000000   20.5618500000
   433      2   31.7388000000   31.7388000000   32.7789600000
   434      2   31.7388000000   31.7388000000   36.8513300000
   435      2   31.7388000000   35.7061500000    0.2000000000
   436      2   31.7388000000   35.7061500000    8.3447400000
   437      2   31.7388000000   35.7061500000   12.4171100000
   438      2   31.7388000000   35.7061500000   16.4894800000
   439      2   31.7388000000   35.7061500000   20.5618500000
   440      2   31.7388000000   35.7061500000   24.6342200000
   441      2   35.7061500000    0.0000000000    0.2000000000
   442      2   35.7061500000    0.0000000000    4.2723700000
   443      2   35.7061500000    0.0000000000   20.5618500000
   444      2   35.7061500000    0.0000000000   24.6342200000
   445      2   35.7061500000    0.0000000000   32.7789600000
   446      2   35.7061500000    0.0000000000   36.8513300000
   447      2   35.7061500000    3.9673500000    0.2000000000
   448      2   35.7061500000    3.9673500000    4.2723700000
   449      2   35.7061500000    3.9673500000   12.4171100000
   450      2   35.7061500000    3.9673500000   20.5618500000
   451      2   35.7061500000    3.9673500000   28.7065900000
   452      2   35.7061500000    3.9673500000   32.7789600000
   453      2   35.7061500000    3.9673500000   36.8513300000
   454      2   35.7061500000    7.9347000000   12.4171100000
   455      2   35.7061500000    7.9347000000   16.4894800000
   456      2   35.7061500000    7.9347000000   24.6342200000
   457      2   35.7061500000    7.9347000000   28.7065900000
   458      2   35.7061500000    7.9347000000   32.7789600000
   459      2   35.7061500000   11.9020500000    0.2000000000
   460      2   35.7061500000   11.9020500000    8.3447400000
   461      2   35.7061500000   11.9020500000   16.4894800000
   462      2   35.7061500000   11.9020500000   20.5618500000
   463      2   35.7061500000   11.9020500000   24.6342200000
   464      2   35.7061500000   11.9020500000   28.7065900000
   465      2   35.7061500000   11.9020500000   32.7789600000
   466      2   35.7061500000   15.8694000000    0.2000000000
   467      2   35.7061500000   15.8694000000    4.2723700000
   468      2   35.7061500000   15.8694000000    8.3447400000
   469      2   35.7061500000   15.8694000000   16.4894800000
   470      2   35.7061500000   15.8694000000   24.6342200000
   471      2   35.7061500000   15.8694000000   28.7065900000
   472      2   35.7061500000   19.8367500000   12.4171100000
   473      2   35.7061500000   19.8367500000   16.4894800000
   474      2   35.7061500000   19.8367500000   20.5618500000
   475      2   35.7061500000   19.8367500000   24.6342200000
   476      2   35.7061500000   19.8367500000   36.8513300000
   477      2   35.7061500000   23.8041000000    0.2000000000
   478      2   35.7061500000   23.8041000000   20.5618500000
   479      2   35.7061500000   23.8041000000   24.6342200000
   480      2   35.7061500000   23.8041000000   32.7789600000