7.773463831264326274e+00 0.000000000000000000e+00 0.000000000000000000e+00 0.000000000000000000e+00 7.773463831264326274e+00 0.000000000000000000e+00 0.000000000000000000e+00 0.000000000000000000e+00 7.815223798125382260e+00
7.775024373437376290e+00 0.000000000000000000e+00 0.000000000000000000e+00 0.000000000000000000e+00 7.775024373437376290e+00 0.000000000000000000e+00 0.000000000000000000e+00 0.000000000000000000e+00 7.816792723715173530e+00
7.779482225122638539e+00 0.000000000000000000e+00 0.000000000000000000e+00 0.000000000000000000e+00 7.779482225122638539e+00 0.000000000000000000e+00 0.000000000000000000e+00 0.000000000000000000e+00 7.821274523506584586e+00
7.786764804888916203e+00 0.000000000000000000e+00 0.000000000000000000e+00 0.000000000000000000e+00 7.786764804888916203e+00 0.000000000000000000e+00 0.000000000000000000e+00 0.000000000000000000e+00 7.828596226152659376e+00
7.796252694507766812e+00 0.000000000000000000e+00 0.000000000000000000e+00 0.000000000000000000e+00 7.796252694507766812e+00 0.000000000000000000e+00 0.000000000000000000e+00 0.000000000000000000e+00 7.838135085837110161e+00
7.807675391451283531e+00 0.000000000000000000e+00 0.000000000000000000e+00 0.000000000000000000e+00 7.807675391451283531e+00 0.000000000000000000e+00 0.000000000000000000e+00 0.000000000000000000e+00 7.849619146858396235e+00
7.820409459758152160e+00 0.000000000000000000e+00 0.000000000000000000e+00 0.000000000000000000e+00 7.820409459758152160e+00 0.000000000000000000e+00 0.000000000000000000e+00 0.000000000000000000e+00 7.862421624086482375e+00
7.832284549589558331e+00 0.000000000000000000e+00 0.000000000000000000e+00 0.000000000000000000e+00 7.832284549589558331e+00 0.000000000000000000e+00 0.000000000000000000e+00 0.000000000000000000e+00 7.874360508303669626e+00
7.841058994782209801e+00 0.000000000000000000e+00 0.000000000000000000e+00 0.000000000000000000e+00 7.841058994782209801e+00 0.000000000000000000e+00 0.000000000000000000e+00 0.000000000000000000e+00 7.883182090853984469e+00
7.844722517423869945e+00 0.000000000000000000e+00 0.000000000000000000e+00 0.000000000000000000e+00 7.844722517423869945e+00 0.000000000000000000e+00 0.000000000000000000e+00 0.000000000000000000e+00 7.886865294372356061e+00
7.842515038124785676e+00 0.000000000000000000e+00 0.000000000000000000e+00 0.000000000000000000e+00 7.842515038124785676e+00 0.000000000000000000e+00 0.000000000000000000e+00 0.000000000000000000e+00 7.884645956233534037e+00
7.835265865421207288e+00 0.000000000000000000e+00 0.000000000000000000e+00 0.000000000000000000e+00 7.835265865421207288e+00 0.000000000000000000e+00 0.000000000000000000e+00 0.000000000000000000e+00 7.877357840117126031e+00
7.824771929721460850e+00 0.000000000000000000e+00 0.000000000000000000e+00 0.000000000000000000e+00 7.824771929721460850e+00 0.000000000000000000e+00 0.000000000000000000e+00 0.000000000000000000e+00 7.866807529754889394e+00
7.812166967174420940e+00 0.000000000000000000e+00 0.000000000000000000e+00 0.000000000000000000e+00 7.812166967174420940e+00 0.000000000000000000e+00 0.000000000000000000e+00 0.000000000000000000e+00 7.854134851857638822e+00
7.798890954734146952e+00 0.000000000000000000e+00 0.000000000000000000e+00 0.000000000000000000e+00 7.798890954734146952e+00 0.000000000000000000e+00 0.000000000000000000e+00 0.000000000000000000e+00 7.840787519108905812e+00
7.787660573375603690e+00 0.000000000000000000e+00 0.000000000000000000e+00 0.000000000000000000e+00 7.787660573375603690e+00 0.000000000000000000e+00 0.000000000000000000e+00 0.000000000000000000e+00 7.829496806814645993e+00
7.781815186233411730e+00 0.000000000000000000e+00 0.000000000000000000e+00 0.000000000000000000e+00 7.781815186233411730e+00 0.000000000000000000e+00 0.000000000000000000e+00 0.000000000000000000e+00 7.823620017560214634e+00
7.783429055899492965e+00 0.000000000000000000e+00 0.000000000000000000e+00 0.000000000000000000e+00 7.783429055899492965e+00 0.000000000000000000e+00 0.000000000000000000e+00 0.000000000000000000e+00 7.825242557125387854e+00
7.791595618279299806e+00 0.000000000000000000e+00 0.000000000000000000e+00 0.000000000000000000e+00 7.791595618279299806e+00 0.000000000000000000e+00 0.000000000000000000e+00 0.000000000000000000e+00 7.833452991244657326e+00
7.804848059003260730e+00 0.000000000000000000e+00 0.000000000000000000e+00 0.000000000000000000e+00 7.804848059003260730e+00 0.000000000000000000e+00 0.000000000000000000e+00 0.000000000000000000e+00 7.846776625646804781e+00
7.821802204379094903e+00 0.000000000000000000e+00 0.000000000000000000e+00 0.000000000000000000e+00 7.821802204379094903e+00 0.000000000000000000e+00 0.000000000000000000e+00 0.000000000000000000e+00 7.863821850696356641e+00
7.840805551640105620e+00 0.000000000000000000e+00 0.000000000000000000e+00 0.000000000000000000e+00 7.840805551640105620e+00 0.000000000000000000e+00 0.000000000000000000e+00 0.000000000000000000e+00 7.882927286185716476e+00
7.859709003408143602e+00 0.000000000000000000e+00 0.000000000000000000e+00 0.000000000000000000e+00 7.859709003408143602e+00 0.000000000000000000e+00 0.000000000000000000e+00 0.000000000000000000e+00 7.901932289532194176e+00
7.876357735812026917e+00 0.000000000000000000e+00 0.000000000000000000e+00 0.000000000000000000e+00 7.876357735812026917e+00 0.000000000000000000e+00 0.000000000000000000e+00 0.000000000000000000e+00 7.918670460894239760e+00
7.890167836374929244e+00 0.000000000000000000e+00 0.000000000000000000e+00 0.000000000000000000e+00 7.890167836374929244e+00 0.000000000000000000e+00 0.000000000000000000e+00 0.000000000000000000e+00 7.932554750950084888e+00
7.901394756296396871e+00 0.000000000000000000e+00 0.000000000000000000e+00 0.000000000000000000e+00 7.901394756296396871e+00 0.000000000000000000e+00 0.000000000000000000e+00 0.000000000000000000e+00 7.943841983214377400e+00
7.908843811091395004e+00 0.000000000000000000e+00 0.000000000000000000e+00 0.000000000000000000e+00 7.908843811091395004e+00 0.000000000000000000e+00 0.000000000000000000e+00 0.000000000000000000e+00 7.951331055211023902e+00
7.910230451449475453e+00 0.000000000000000000e+00 0.000000000000000000e+00 0.000000000000000000e+00 7.910230451449475453e+00 0.000000000000000000e+00 0.000000000000000000e+00 0.000000000000000000e+00 7.952725144765223853e+00
7.904917389990057330e+00 0.000000000000000000e+00 0.000000000000000000e+00 0.000000000000000000e+00 7.904917389990057330e+00 0.000000000000000000e+00 0.000000000000000000e+00 0.000000000000000000e+00 7.947383540912104749e+00
7.894554743989568024e+00 0.000000000000000000e+00 0.000000000000000000e+00 0.000000000000000000e+00 7.894554743989568024e+00 0.000000000000000000e+00 0.000000000000000000e+00 0.000000000000000000e+00 7.936965225552064851e+00
7.880385439223353217e+00 0.000000000000000000e+00 0.000000000000000000e+00 0.000000000000000000e+00 7.880385439223353217e+00 0.000000000000000000e+00 0.000000000000000000e+00 0.000000000000000000e+00 7.922719801605014212e+00
7.862386447575969051e+00 0.000000000000000000e+00 0.000000000000000000e+00 0.000000000000000000e+00 7.862386447575969051e+00 0.000000000000000000e+00 0.000000000000000000e+00 0.000000000000000000e+00 7.904624117246223491e+00
7.841493178946914888e+00 0.000000000000000000e+00 0.000000000000000000e+00 0.000000000000000000e+00 7.841493178946914888e+00 0.000000000000000000e+00 0.000000000000000000e+00 0.000000000000000000e+00 7.883618607507263398e+00
7.820374609249761910e+00 0.000000000000000000e+00 0.000000000000000000e+00 0.000000000000000000e+00 7.820374609249761910e+00 0.000000000000000000e+00 0.000000000000000000e+00 0.000000000000000000e+00 7.862386586357169804e+00
7.802278262455782709e+00 0.000000000000000000e+00 0.000000000000000000e+00 0.000000000000000000e+00 7.802278262455782709e+00 0.000000000000000000e+00 0.000000000000000000e+00 0.000000000000000000e+00 7.844193023848794688e+00
7.788926431229944214e+00 0.000000000000000000e+00 0.000000000000000000e+00 0.000000000000000000e+00 7.788926431229944214e+00 0.000000000000000000e+00 0.000000000000000000e+00 0.000000000000000000e+00 7.830769465005841923e+00
7.780465018633383245e+00 0.000000000000000000e+00 0.000000000000000000e+00 0.000000000000000000e+00 7.780465018633383245e+00 0.000000000000000000e+00 0.000000000000000000e+00 0.000000000000000000e+00 7.822262596700936932e+00
7.777273234452255046e+00 0.000000000000000000e+00 0.000000000000000000e+00 0.000000000000000000e+00 7.777273234452255046e+00 0.000000000000000000e+00 0.000000000000000000e+00 0.000000000000000000e+00 7.819053665877509829e+00
7.780343689357790637e+00 0.000000000000000000e+00 0.000000000000000000e+00 0.000000000000000000e+00 7.780343689357790637e+00 0.000000000000000000e+00 0.000000000000000000e+00 0.000000000000000000e+00 7.822140615629097127e+00
7.790213873159041569e+00 0.000000000000000000e+00 0.000000000000000000e+00 0.000000000000000000e+00 7.790213873159041569e+00 0.000000000000000000e+00 0.000000000000000000e+00 0.000000000000000000e+00 7.832063823225126065e+00
7.805058480846009061e+00 0.000000000000000000e+00 0.000000000000000000e+00 0.000000000000000000e+00 7.805058480846009061e+00 0.000000000000000000e+00 0.000000000000000000e+00 0.000000000000000000e+00 7.846988177900046324e+00
7.821370006275957465e+00 0.000000000000000000e+00 0.000000000000000000e+00 0.000000000000000000e+00 7.821370006275957465e+00 0.000000000000000000e+00 0.000000000000000000e+00 0.000000000000000000e+00 7.863387330773583983e+00
7.835911148094766077e+00 0.000000000000000000e+00 0.000000000000000000e+00 0.000000000000000000e+00 7.835911148094766077e+00 0.000000000000000000e+00 0.000000000000000000e+00 0.000000000000000000e+00 7.878006589325729614e+00
7.846502367583517490e+00 0.000000000000000000e+00 0.000000000000000000e+00 0.000000000000000000e+00 7.846502367583517490e+00 0.000000000000000000e+00 0.000000000000000000e+00 0.000000000000000000e+00 7.888654706097963043e+00
7.851848736227208470e+00 0.000000000000000000e+00 0.000000000000000000e+00 0.000000000000000000e+00 7.851848736227208470e+00 0.000000000000000000e+00 0.000000000000000000e+00 0.000000000000000000e+00 7.894029796066326377e+00
7.850843178880499984e+00 0.000000000000000000e+00 0.000000000000000000e+00 0.000000000000000000e+00 7.850843178880499984e+00 0.000000000000000000e+00 0.000000000000000000e+00 0.000000000000000000e+00 7.893018836745712363e+00
7.842754041564010237e+00 0.000000000000000000e+00 0.000000000000000000e+00 0.000000000000000000e+00 7.842754041564010237e+00 0.000000000000000000e+00 0.000000000000000000e+00 0.000000000000000000e+00 7.884886243627367897e+00
7.828240816292505677e+00 0.000000000000000000e+00 0.000000000000000000e+00 0.000000000000000000e+00 7.828240816292505677e+00 0.000000000000000000e+00 0.000000000000000000e+00 0.000000000000000000e+00 7.870295051593663160e+00
7.809675304419182673e+00 0.000000000000000000e+00 0.000000000000000000e+00 0.000000000000000000e+00 7.809675304419182673e+00 0.000000000000000000e+00 0.000000000000000000e+00 0.000000000000000000e+00 7.851629803595451484e+00
7.790157563142178887e+00 0.000000000000000000e+00 0.000000000000000000e+00 0.000000000000000000e+00 7.790157563142178887e+00 0.000000000000000000e+00 0.000000000000000000e+00 0.000000000000000000e+00 7.832007210705005384e+00
7.772785430206407220e+00 0.000000000000000000e+00 0.000000000000000000e+00 0.000000000000000000e+00 7.772785430206407220e+00 0.000000000000000000e+00 0.000000000000000000e+00 0.000000000000000000e+00 7.814541752616441350e+00
7.760084714274552375e+00 0.000000000000000000e+00 0.000000000000000000e+00 0.000000000000000000e+00 7.760084714274552375e+00 0.000000000000000000e+00 0.000000000000000000e+00 0.000000000000000000e+00 7.801772806936337901e+00
7.753899721193235450e+00 0.000000000000000000e+00 0.000000000000000000e+00 0.000000000000000000e+00 7.753899721193235450e+00 0.000000000000000000e+00 0.000000000000000000e+00 0.000000000000000000e+00 7.795554587342282460e+00
7.755348863884533372e+00 0.000000000000000000e+00 0.000000000000000000e+00 0.000000000000000000e+00 7.755348863884533372e+00 0.000000000000000000e+00 0.000000000000000000e+00 0.000000000000000000e+00 7.797011514998767545e+00
7.764429611274016985e+00 0.000000000000000000e+00 0.000000000000000000e+00 0.000000000000000000e+00 7.764429611274016985e+00 0.000000000000000000e+00 0.000000000000000000e+00 0.000000000000000000e+00 7.806141045237442455e+00
7.779542915905284239e+00 0.000000000000000000e+00 0.000000000000000000e+00 0.000000000000000000e+00 7.779542915905284239e+00 0.000000000000000000e+00 0.000000000000000000e+00 0.000000000000000000e+00 7.821335540327353009e+00
7.797768466164528789e+00 0.000000000000000000e+00 0.000000000000000000e+00 0.000000000000000000e+00 7.797768466164528789e+00 0.000000000000000000e+00 0.000000000000000000e+00 0.000000000000000000e+00 7.839659000397999122e+00
7.815796227138307906e+00 0.000000000000000000e+00 0.000000000000000000e+00 0.000000000000000000e+00 7.815796227138307906e+00 0.000000000000000000e+00 0.000000000000000000e+00 0.000000000000000000e+00 7.857783608635296346e+00
7.830809997027527558e+00 0.000000000000000000e+00 0.000000000000000000e+00 0.000000000000000000e+00 7.830809997027527558e+00 0.000000000000000000e+00 0.000000000000000000e+00 0.000000000000000000e+00 7.872878034272236647e+00
7.841141578424833725e+00 0.000000000000000000e+00 0.000000000000000000e+00 0.000000000000000000e+00 7.841141578424833725e+00 0.000000000000000000e+00 0.000000000000000000e+00 0.000000000000000000e+00 7.883265118145054373e+00
7.846219322553809050e+00 0.000000000000000000e+00 0.000000000000000000e+00 0.000000000000000000e+00 7.846219322553809050e+00 0.000000000000000000e+00 0.000000000000000000e+00 0.000000000000000000e+00 7.888370140517008799e+00
7.845989130535864220e+00 0.000000000000000000e+00 0.000000000000000000e+00 0.000000000000000000e+00 7.845989130535864220e+00 0.000000000000000000e+00 0.000000000000000000e+00 0.000000000000000000e+00 7.888138711880181120e+00
7.841022543432035086e+00 0.000000000000000000e+00 0.000000000000000000e+00 0.000000000000000000e+00 7.841022543432035086e+00 0.000000000000000000e+00 0.000000000000000000e+00 0.000000000000000000e+00 7.883145443682936460e+00
7.832688985689502559e+00 0.000000000000000000e+00 0.000000000000000000e+00 0.000000000000000000e+00 7.832688985689502559e+00 0.000000000000000000e+00 0.000000000000000000e+00 0.000000000000000000e+00 7.874767117082107859e+00
7.822944963665027451e+00 0.000000000000000000e+00 0.000000000000000000e+00 0.000000000000000000e+00 7.822944963665027451e+00 0.000000000000000000e+00 0.000000000000000000e+00 0.000000000000000000e+00 7.864970749019951413e+00
7.813785347833534622e+00 0.000000000000000000e+00 0.000000000000000000e+00 0.000000000000000000e+00 7.813785347833534622e+00 0.000000000000000000e+00 0.000000000000000000e+00 0.000000000000000000e+00 7.855761926648706428e+00
7.806722960859761251e+00 0.000000000000000000e+00 0.000000000000000000e+00 0.000000000000000000e+00 7.806722960859761251e+00 0.000000000000000000e+00 0.000000000000000000e+00 0.000000000000000000e+00 7.848661599697327240e+00
7.803191444542232347e+00 0.000000000000000000e+00 0.000000000000000000e+00 0.000000000000000000e+00 7.803191444542232347e+00 0.000000000000000000e+00 0.000000000000000000e+00 0.000000000000000000e+00 7.845111111657005587e+00
7.803677746539931626e+00 0.000000000000000000e+00 0.000000000000000000e+00 0.000000000000000000e+00 7.803677746539931626e+00 0.000000000000000000e+00 0.000000000000000000e+00 0.000000000000000000e+00 7.845600026125666204e+00
7.807368286286073378e+00 0.000000000000000000e+00 0.000000000000000000e+00 0.000000000000000000e+00 7.807368286286073378e+00 0.000000000000000000e+00 0.000000000000000000e+00 0.000000000000000000e+00 7.849310391888683291e+00
7.813533607326628605e+00 0.000000000000000000e+00 0.000000000000000000e+00 0.000000000000000000e+00 7.813533607326628605e+00 0.000000000000000000e+00 0.000000000000000000e+00 0.000000000000000000e+00 7.855508833762585574e+00
7.822743179426558058e+00 0.000000000000000000e+00 0.000000000000000000e+00 0.000000000000000000e+00 7.822743179426558058e+00 0.000000000000000000e+00 0.000000000000000000e+00 0.000000000000000000e+00 7.864767880772721931e+00
7.834113777006975532e+00 0.000000000000000000e+00 0.000000000000000000e+00 0.000000000000000000e+00 7.834113777006975532e+00 0.000000000000000000e+00 0.000000000000000000e+00 0.000000000000000000e+00 7.876199562548520383e+00
7.846008352644215478e+00 0.000000000000000000e+00 0.000000000000000000e+00 0.000000000000000000e+00 7.846008352644215478e+00 0.000000000000000000e+00 0.000000000000000000e+00 0.000000000000000000e+00 7.888158037251938204e+00
7.858191172319236806e+00 0.000000000000000000e+00 0.000000000000000000e+00 0.000000000000000000e+00 7.858191172319236806e+00 0.000000000000000000e+00 0.000000000000000000e+00 0.000000000000000000e+00 7.900406304474223873e+00
7.871611942501242076e+00 0.000000000000000000e+00 0.000000000000000000e+00 0.000000000000000000e+00 7.871611942501242076e+00 0.000000000000000000e+00 0.000000000000000000e+00 0.000000000000000000e+00 7.913899172621212230e+00
7.885382519558653769e+00 0.000000000000000000e+00 0.000000000000000000e+00 0.000000000000000000e+00 7.885382519558653769e+00 0.000000000000000000e+00 0.000000000000000000e+00 0.000000000000000000e+00 7.927743726846788519e+00
7.896078865831263727e+00 0.000000000000000000e+00 0.000000000000000000e+00 0.000000000000000000e+00 7.896078865831263727e+00 0.000000000000000000e+00 0.000000000000000000e+00 0.000000000000000000e+00 7.938497535156629148e+00
7.899718779952822345e+00 0.000000000000000000e+00 0.000000000000000000e+00 0.000000000000000000e+00 7.899718779952822345e+00 0.000000000000000000e+00 0.000000000000000000e+00 0.000000000000000000e+00 7.942157003326627773e+00
7.894709183163569399e+00 0.000000000000000000e+00 0.000000000000000000e+00 0.000000000000000000e+00 7.894709183163569399e+00 0.000000000000000000e+00 0.000000000000000000e+00 0.000000000000000000e+00 7.937120494390290659e+00
7.882063727046623391e+00 0.000000000000000000e+00 0.000000000000000000e+00 0.000000000000000000e+00 7.882063727046623391e+00 0.000000000000000000e+00 0.000000000000000000e+00 0.000000000000000000e+00 7.924407105388386441e+00
7.865359945481619874e+00 0.000000000000000000e+00 0.000000000000000000e+00 0.000000000000000000e+00 7.865359945481619874e+00 0.000000000000000000e+00 0.000000000000000000e+00 0.000000000000000000e+00 7.907613589133922538e+00
7.847966244241002087e+00 0.000000000000000000e+00 0.000000000000000000e+00 0.000000000000000000e+00 7.847966244241002087e+00 0.000000000000000000e+00 0.000000000000000000e+00 0.000000000000000000e+00 7.890126446874179855e+00
7.829419485320731731e+00 0.000000000000000000e+00 0.000000000000000000e+00 0.000000000000000000e+00 7.829419485320731731e+00 0.000000000000000000e+00 0.000000000000000000e+00 0.000000000000000000e+00 7.871480052571440567e+00
7.810465648410723993e+00 0.000000000000000000e+00 0.000000000000000000e+00 0.000000000000000000e+00 7.810465648410723993e+00 0.000000000000000000e+00 0.000000000000000000e+00 0.000000000000000000e+00 7.852424393408552916e+00
7.794874296556240090e+00 0.000000000000000000e+00 0.000000000000000000e+00 0.000000000000000000e+00 7.794874296556240090e+00 0.000000000000000000e+00 0.000000000000000000e+00 0.000000000000000000e+00 7.836749282968209052e+00
7.786627405598828489e+00 0.000000000000000000e+00 0.000000000000000000e+00 0.000000000000000000e+00 7.786627405598828489e+00 0.000000000000000000e+00 0.000000000000000000e+00 0.000000000000000000e+00 7.828458088737819232e+00
7.785546677053827302e+00 0.000000000000000000e+00 0.000000000000000000e+00 0.000000000000000000e+00 7.785546677053827302e+00 0.000000000000000000e+00 0.000000000000000000e+00 0.000000000000000000e+00 7.827371554391238995e+00
7.790116387663196917e+00 0.000000000000000000e+00 0.000000000000000000e+00 0.000000000000000000e+00 7.790116387663196917e+00 0.000000000000000000e+00 0.000000000000000000e+00 0.000000000000000000e+00 7.831965814025296346e+00
7.798558687855774885e+00 0.000000000000000000e+00 0.000000000000000000e+00 0.000000000000000000e+00 7.798558687855774885e+00 0.000000000000000000e+00 0.000000000000000000e+00 0.000000000000000000e+00 7.840453467253808206e+00
7.810024280485371229e+00 0.000000000000000000e+00 0.000000000000000000e+00 0.000000000000000000e+00 7.810024280485371229e+00 0.000000000000000000e+00 0.000000000000000000e+00 0.000000000000000000e+00 7.851980654402847648e+00
7.822883053306401990e+00 0.000000000000000000e+00 0.000000000000000000e+00 0.000000000000000000e+00 7.822883053306401990e+00 0.000000000000000000e+00 0.000000000000000000e+00 0.000000000000000000e+00 7.864908506071240701e+00
7.833965957156870275e+00 0.000000000000000000e+00 0.000000000000000000e+00 0.000000000000000000e+00 7.833965957156870275e+00 0.000000000000000000e+00 0.000000000000000000e+00 0.000000000000000000e+00 7.876050948591986511e+00
7.839927514103353090e+00 0.000000000000000000e+00 0.000000000000000000e+00 0.000000000000000000e+00 7.839927514103353090e+00 0.000000000000000000e+00 0.000000000000000000e+00 0.000000000000000000e+00 7.882044531727117054e+00
7.839632245788006770e+00 0.000000000000000000e+00 0.000000000000000000e+00 0.000000000000000000e+00 7.839632245788006770e+00 0.000000000000000000e+00 0.000000000000000000e+00 0.000000000000000000e+00 7.881747677195901858e+00
7.834535954542793945e+00 0.000000000000000000e+00 0.000000000000000000e+00 0.000000000000000000e+00 7.834535954542793945e+00 0.000000000000000000e+00 0.000000000000000000e+00 0.000000000000000000e+00 7.876624008071283711e+00
7.826588429070143960e+00 0.000000000000000000e+00 0.000000000000000000e+00 0.000000000000000000e+00 7.826588429070143960e+00 0.000000000000000000e+00 0.000000000000000000e+00 0.000000000000000000e+00 7.868633787552398395e+00
7.816903691569409673e+00 0.000000000000000000e+00 0.000000000000000000e+00 0.000000000000000000e+00 7.816903691569409673e+00 0.000000000000000000e+00 0.000000000000000000e+00 0.000000000000000000e+00 7.858897022496150520e+00
7.805755009738578387e+00 0.000000000000000000e+00 0.000000000000000000e+00 0.000000000000000000e+00 7.805755009738578387e+00 0.000000000000000000e+00 0.000000000000000000e+00 0.000000000000000000e+00 7.847688448628077573e+00
7.793995895255583228e+00 0.000000000000000000e+00 0.000000000000000000e+00 0.000000000000000000e+00 7.793995895255583228e+00 0.000000000000000000e+00 0.000000000000000000e+00 0.000000000000000000e+00 7.835866162792714640e+00
7.783349641010628872e+00 0.000000000000000000e+00 0.000000000000000000e+00 0.000000000000000000e+00 7.783349641010628872e+00 0.000000000000000000e+00 0.000000000000000000e+00 0.000000000000000000e+00 7.825162715610979980e+00
7.775889202224161245e+00 0.000000000000000000e+00 0.000000000000000000e+00 0.000000000000000000e+00 7.775889202224161245e+00 0.000000000000000000e+00 0.000000000000000000e+00 0.000000000000000000e+00 7.817662198465215262e+00
7.772816512152489921e+00 0.000000000000000000e+00 0.000000000000000000e+00 0.000000000000000000e+00 7.772816512152489921e+00 0.000000000000000000e+00 0.000000000000000000e+00 0.000000000000000000e+00 7.814573001538563268e+00
7.774532991783916103e+00 0.000000000000000000e+00 0.000000000000000000e+00 0.000000000000000000e+00 7.774532991783916103e+00 0.000000000000000000e+00 0.000000000000000000e+00 0.000000000000000000e+00 7.816298702300909618e+00
7.781034888249042325e+00 0.000000000000000000e+00 0.000000000000000000e+00 0.000000000000000000e+00 7.781034888249042325e+00 0.000000000000000000e+00 0.000000000000000000e+00 0.000000000000000000e+00 7.822835527723973392e+00
7.791490957508758974e+00 0.000000000000000000e+00 0.000000000000000000e+00 0.000000000000000000e+00 7.791490957508758974e+00 0.000000000000000000e+00 0.000000000000000000e+00 0.000000000000000000e+00 7.833347768223352325e+00
7.804294968422016865e+00 0.000000000000000000e+00 0.000000000000000000e+00 0.000000000000000000e+00 7.804294968422016865e+00 0.000000000000000000e+00 0.000000000000000000e+00 0.000000000000000000e+00 7.846220563797664305e+00
7.817538383780929578e+00 0.000000000000000000e+00 0.000000000000000000e+00 0.000000000000000000e+00 7.817538383780929578e+00 0.000000000000000000e+00 0.000000000000000000e+00 0.000000000000000000e+00 7.859535124349044999e+00
7.829291565390076535e+00 0.000000000000000000e+00 0.000000000000000000e+00 0.000000000000000000e+00 7.829291565390076535e+00 0.000000000000000000e+00 0.000000000000000000e+00 0.000000000000000000e+00 7.871351445439741745e+00
7.837493672524278310e+00 0.000000000000000000e+00 0.000000000000000000e+00 0.000000000000000000e+00 7.837493672524278310e+00 0.000000000000000000e+00 0.000000000000000000e+00 0.000000000000000000e+00 7.879597615263305599e+00
7.840755747065795589e+00 0.000000000000000000e+00 0.000000000000000000e+00 0.000000000000000000e+00 7.840755747065795589e+00 0.000000000000000000e+00 0.000000000000000000e+00 0.000000000000000000e+00 7.882877214054946791e+00
7.838857214470320578e+00 0.000000000000000000e+00 0.000000000000000000e+00 0.000000000000000000e+00 7.838857214470320578e+00 0.000000000000000000e+00 0.000000000000000000e+00 0.000000000000000000e+00 7.880968482318181145e+00
7.832499248952684567e+00 0.000000000000000000e+00 0.000000000000000000e+00 0.000000000000000000e+00 7.832499248952684567e+00 0.000000000000000000e+00 0.000000000000000000e+00 0.000000000000000000e+00 7.874576361058156060e+00
7.823084481093923515e+00 0.000000000000000000e+00 0.000000000000000000e+00 0.000000000000000000e+00 7.823084481093923515e+00 0.000000000000000000e+00 0.000000000000000000e+00 0.000000000000000000e+00 7.865111015952533258e+00
7.812088129562233974e+00 0.000000000000000000e+00 0.000000000000000000e+00 0.000000000000000000e+00 7.812088129562233974e+00 0.000000000000000000e+00 0.000000000000000000e+00 0.000000000000000000e+00 7.854055590719890567e+00
7.801049136238004778e+00 0.000000000000000000e+00 0.000000000000000000e+00 0.000000000000000000e+00 7.801049136238004778e+00 0.000000000000000000e+00 0.000000000000000000e+00 0.000000000000000000e+00 7.842957294619024466e+00
7.791273206606198265e+00 0.000000000000000000e+00 0.000000000000000000e+00 0.000000000000000000e+00 7.791273206606198265e+00 0.000000000000000000e+00 0.000000000000000000e+00 0.000000000000000000e+00 7.833128847537525807e+00
7.784722199612768456e+00 0.000000000000000000e+00 0.000000000000000000e+00 0.000000000000000000e+00 7.784722199612768456e+00 0.000000000000000000e+00 0.000000000000000000e+00 0.000000000000000000e+00 7.826542647758674143e+00
7.783272643575848804e+00 0.000000000000000000e+00 0.000000000000000000e+00 0.000000000000000000e+00 7.783272643575848804e+00 0.000000000000000000e+00 0.000000000000000000e+00 0.000000000000000000e+00 7.825085304535581265e+00
7.787562483364239618e+00 0.000000000000000000e+00 0.000000000000000000e+00 0.000000000000000000e+00 7.787562483364239618e+00 0.000000000000000000e+00 0.000000000000000000e+00 0.000000000000000000e+00 7.829398189850314438e+00
7.797230184394041252e+00 0.000000000000000000e+00 0.000000000000000000e+00 0.000000000000000000e+00 7.797230184394041252e+00 0.000000000000000000e+00 0.000000000000000000e+00 0.000000000000000000e+00 7.839117826914156595e+00
7.811890858857784004e+00 0.000000000000000000e+00 0.000000000000000000e+00 0.000000000000000000e+00 7.811890858857784004e+00 0.000000000000000000e+00 0.000000000000000000e+00 0.000000000000000000e+00 7.853857260254539341e+00
7.830746043327663664e+00 0.000000000000000000e+00 0.000000000000000000e+00 0.000000000000000000e+00 7.830746043327663664e+00 0.000000000000000000e+00 0.000000000000000000e+00 0.000000000000000000e+00 7.872813737005351697e+00
7.850164317582230211e+00 0.000000000000000000e+00 0.000000000000000000e+00 0.000000000000000000e+00 7.850164317582230211e+00 0.000000000000000000e+00 0.000000000000000000e+00 0.000000000000000000e+00 7.892336328525435540e+00
7.867109188603449432e+00 0.000000000000000000e+00 0.000000000000000000e+00 0.000000000000000000e+00 7.867109188603449432e+00 0.000000000000000000e+00 0.000000000000000000e+00 0.000000000000000000e+00 7.909372229396659293e+00
7.880320686284091103e+00 0.000000000000000000e+00 0.000000000000000000e+00 0.000000000000000000e+00 7.880320686284091103e+00 0.000000000000000000e+00 0.000000000000000000e+00 0.000000000000000000e+00 7.922654700804755201e+00
7.890348380596662103e+00 0.000000000000000000e+00 0.000000000000000000e+00 0.000000000000000000e+00 7.890348380596662103e+00 0.000000000000000000e+00 0.000000000000000000e+00 0.000000000000000000e+00 7.932736265077235061e+00
7.897459908628565728e+00 0.000000000000000000e+00 0.000000000000000000e+00 0.000000000000000000e+00 7.897459908628565728e+00 0.000000000000000000e+00 0.000000000000000000e+00 0.000000000000000000e+00 7.939885997078224733e+00
7.901055416443739432e+00 0.000000000000000000e+00 0.000000000000000000e+00 0.000000000000000000e+00 7.901055416443739432e+00 0.000000000000000000e+00 0.000000000000000000e+00 0.000000000000000000e+00 7.943500820387213501e+00
7.898678771162425782e+00 0.000000000000000000e+00 0.000000000000000000e+00 0.000000000000000000e+00 7.898678771162425782e+00 0.000000000000000000e+00 0.000000000000000000e+00 0.000000000000000000e+00 7.941111407486393325e+00
7.888298106549656907e+00 0.000000000000000000e+00 0.000000000000000000e+00 0.000000000000000000e+00 7.888298106549656907e+00 0.000000000000000000e+00 0.000000000000000000e+00 0.000000000000000000e+00 7.930674976715631708e+00
7.871688404043106324e+00 0.000000000000000000e+00 0.000000000000000000e+00 0.000000000000000000e+00 7.871688404043106324e+00 0.000000000000000000e+00 0.000000000000000000e+00 0.000000000000000000e+00 7.913976044922711672e+00
7.853035557399508981e+00 0.000000000000000000e+00 0.000000000000000000e+00 0.000000000000000000e+00 7.853035557399508981e+00 0.000000000000000000e+00 0.000000000000000000e+00 0.000000000000000000e+00 7.895222992981925536e+00