2.710505141000000076e-03 7.772315707493000048e+00 3.225753233999999973e-03 3.887386943376999859e+00 7.770716243693000180e+00 5.629116846999999632e-03 7.763826670581999601e+00 3.888910627964000000e+00 7.814052597783000209e+00 3.894538691443000022e+00 3.877182873384000139e+00 1.555846726999999966e-03 1.637938319000000051e-03 6.407788188000000315e-03 3.903682468127000149e+00 3.885935493548000164e+00 7.772259538445999816e+00 3.909495462835999913e+00 7.766465706871000130e+00 3.885688554924000115e+00 3.908392539682000066e+00 3.890017373091000152e+00 3.890774474461999866e+00 3.901513814648999823e+00 1.954348826621999935e+00 1.946041318310999912e+00 1.954341928907000092e+00 5.830747007648000135e+00 1.939299903907000022e+00 1.960166119875000001e+00 1.942135637198000087e+00 5.839639753181000259e+00 1.953034648767000059e+00 5.833236003651999901e+00 5.822617803004000336e+00 1.949042837202999978e+00 1.941545390207999988e+00 1.938632433973999980e+00 5.855725051735999998e+00 5.831280523302999619e+00 1.948367115731000077e+00 5.860193594320000088e+00 1.940815264270000062e+00 5.826217120752000156e+00 5.851931576572999560e+00 5.829671504768000112e+00 5.826673627158999835e+00 5.869879070195000104e+00 7.772911040764999946e+00 1.788648785811999931e+00 1.954773617802999963e+00 3.878850784058000212e+00 2.118969085166999999e+00 1.961836656752999897e+00 1.117872490999999996e-03 6.008448603927000420e+00 1.945285119803999985e+00 3.894648605816000142e+00 5.667576543111000120e+00 1.940363804663000069e+00 3.020114360999999817e-03 2.110870682804999898e+00 5.860365121871000227e+00 3.894911498181000020e+00 1.777342876966000018e+00 5.856868362043999632e+00 7.768849613367000195e+00 5.657724135389999631e+00 5.851030307163999744e+00 3.898265054831000054e+00 6.012175882029000107e+00 5.863039712881000121e+00 2.121598866025999897e+00 9.596332297000000067e-03 1.953246069918999961e+00 5.659588289248000059e+00 7.769792386226000325e+00 1.966867489208999897e+00 1.767603314473999987e+00 3.893112185973000017e+00 1.953437813082000041e+00 5.988990788283000022e+00 3.906897156658999837e+00 1.944826336678999956e+00 1.773062893564999909e+00 7.758885300945999930e+00 5.872314749300000081e+00 5.997329199842000413e+00 7.770861289867999844e+00 5.846682978303999967e+00 2.109034871463999927e+00 3.880994003371999845e+00 5.876458154245000287e+00 5.630234554161000382e+00 3.886801803470000038e+00 5.878469994557000255e+00 1.956923030250000028e+00 1.933782808209000059e+00 1.423771379400000023e-02 5.820772520931999594e+00 1.935931007848999963e+00 7.805660556783999837e+00 1.946266793983999932e+00 5.815205774146999573e+00 7.808613249207000173e+00 5.832755078704000340e+00 5.826877906875999713e+00 3.377582998999999978e-03 1.934144590859999902e+00 1.948890526135999890e+00 3.901428673745999998e+00 5.828282909601999684e+00 1.936863179276000047e+00 3.902677603087000069e+00 1.949736470850000014e+00 5.837104943487999797e+00 3.908959297953999990e+00 5.830267043081000189e+00 5.837474010562000437e+00 3.921256604957000125e+00
1.605282087499999844e-02 7.768494015851000078e+00 1.870731362100000114e-02 3.891531170163000208e+00 7.758214287347000138e+00 3.274186113400000264e-02 7.719226372299999639e+00 3.900446651892000016e+00 7.810195688590000351e+00 3.932541171811999803e+00 3.831191847544999973e+00 9.293734151000000374e-03 8.648841253000000284e-03 3.751680136499999790e-02 3.885357124352999847e+00 3.884139795022000019e+00 7.767171965688000057e+00 3.920324284393999825e+00 7.733948870156000410e+00 3.881690515433999789e+00 3.912262928479000035e+00 3.906816566314999850e+00 3.912259002234999894e+00 3.872555876693000165e+00 2.005652483758999960e+00 1.963620141702999922e+00 1.954250266349000009e+00 5.837490710269999994e+00 1.915378754235999903e+00 1.989818061427000018e+00 1.938379384937999994e+00 5.883103560796000053e+00 1.944102210315999946e+00 5.847313498154999678e+00 5.791482275951000069e+00 1.930483741438000056e+00 1.936653619432999962e+00 1.917011335940999928e+00 5.831484008883999870e+00 5.835026245242000087e+00 1.967864173976999975e+00 5.857626703074999774e+00 1.930991062938000047e+00 5.807111578613000091e+00 5.812128550223000012e+00 5.826311064027000164e+00 5.816094991815999649e+00 5.907962029796999914e+00 7.758263686617000054e+00 1.893744247355999999e+00 1.957277381066000022e+00 3.860054677122000122e+00 2.119313200657999996e+00 2.003780934471000030e+00 1.321959211700000046e-02 6.022411358408000126e+00 1.907643781862000010e+00 3.921027890957000217e+00 5.738222820492000054e+00 1.879756351823000049e+00 1.638581259400000156e-02 2.070560637847000063e+00 5.857076242433000068e+00 3.917480813303999998e+00 1.823702996483999916e+00 5.831110792366000162e+00 7.756780707988999879e+00 5.672458111196999830e+00 5.804500888363000044e+00 3.936321944754999969e+00 6.037471505582000297e+00 5.872339883198000265e+00 2.126943385905000206e+00 4.440286963099999984e-02 1.954062792670999915e+00 5.690445151481999808e+00 7.773199976335000372e+00 2.025936722570000015e+00 1.772567856351999982e+00 3.928931938397000057e+00 1.957143656284999977e+00 5.908058665288000277e+00 3.975451973739999811e+00 1.906316070194000067e+00 1.801281141785999962e+00 7.708891295362000129e+00 5.923297827266999604e+00 5.959197194778999673e+00 7.770342520960999977e+00 5.783496915381999948e+00 2.058647056368000161e+00 3.849988755190000056e+00 5.943108989771999973e+00 5.529511968099000363e+00 3.881496573799999794e+00 5.955601979745999586e+00 2.020008982702000022e+00 1.887349339130000025e+00 6.383674873899999880e-02 5.779290290318000345e+00 1.900049918039999897e+00 7.776541301774000381e+00 1.958252710837999899e+00 5.750466048457999690e+00 7.787109318041999906e+00 5.852920065198000010e+00 5.817922851460999745e+00 1.812315815900000099e-02 1.890862799668999950e+00 1.972399884456000008e+00 3.892042983294000003e+00 5.823322203445999712e+00 1.917492932894000024e+00 3.877730465682000194e+00 1.982395436356999996e+00 5.869635494899999806e+00 3.910356665860999836e+00 5.833723688646999861e+00 5.863690799729000425e+00 3.970352305316000141e+00
2.903426164099999832e-02 7.769409610348000150e+00 3.151861263800000146e-02 3.897091887150000211e+00 7.747749428903000002e+00 5.601226198400000023e-02 7.685142284397000090e+00 3.912401183177999897e+00 7.810662410415000423e+00 3.964344518592000099e+00 3.790073786687000013e+00 1.741360003700000159e-02 1.204436710299999942e-02 6.543270509100000687e-02 3.870608022653999836e+00 3.888273940689999986e+00 7.763259190183999792e+00 3.934678224319999806e+00 7.708092746822999608e+00 3.880237732947999785e+00 3.914780560126000175e+00 3.923373111612999953e+00 3.936522557971999792e+00 3.847828598019999990e+00 2.041934969360000185e+00 1.994634250989999913e+00 1.945300728684000058e+00 5.854412712109000161e+00 1.880626291126000105e+00 2.010080345551000125e+00 1.942446120485000094e+00 5.909337330308000347e+00 1.917820976173000069e+00 5.854113180075000145e+00 5.783228227481999717e+00 1.930018304250000094e+00 1.945071547313000027e+00 1.902390058094999947e+00 5.818784000853000293e+00 5.830303549805000429e+00 1.967294511998000095e+00 5.865224568290000384e+00 1.928993508725999950e+00 5.787537754501999920e+00 5.797304103340000125e+00 5.817195870244000311e+00 5.825192118147000109e+00 5.928373359741000215e+00 7.722744789264000431e+00 1.985684287872000020e+00 1.950064089452000049e+00 3.891609473002000108e+00 2.130276842008000049e+00 2.049621723240000026e+00 3.123589763300000169e-02 6.043489697530000093e+00 1.888621351442000051e+00 3.915899808970999985e+00 5.812559751232000416e+00 1.841693287395999912e+00 1.175543509500000076e-02 2.043261419183000083e+00 5.861113694135999808e+00 3.888687634916999869e+00 1.849812486402999889e+00 5.794058817674000217e+00 7.769960110766000128e+00 5.672216907854999768e+00 5.776630281383999588e+00 3.920201124830999806e+00 6.045980659458000339e+00 5.883862793299999616e+00 2.113820357558000129e+00 4.616613081499999771e-02 1.967686236145000045e+00 5.726464912780000027e+00 4.328788545099999940e-02 2.061396362335000010e+00 1.788021165963999959e+00 3.961841669271000121e+00 1.979291039080000036e+00 5.848108871337999837e+00 3.948824260993000212e+00 1.889963924274999929e+00 1.821642639937999908e+00 7.720894697153999786e+00 5.958929187524000248e+00 5.941736691712000251e+00 1.914838115399999929e-02 5.755159561536999924e+00 2.017624683528000062e+00 3.823357934716999917e+00 5.978133775213000156e+00 5.493025937138999559e+00 3.871288386329000186e+00 5.998361932665999596e+00 2.065267635117999934e+00 1.850048418777000103e+00 6.026075560000000025e-02 5.754244124461999732e+00 1.868511677652000103e+00 7.794002480461999838e+00 1.960132107783999933e+00 5.720858996824000009e+00 7.797565487991000133e+00 5.894095892323999664e+00 5.833151495714999690e+00 1.990459304100000021e-02 1.857612459574000008e+00 1.979934908186000042e+00 3.931052356038000184e+00 5.830450835306000279e+00 1.943158925294999895e+00 3.870601639189000132e+00 2.016229102637999926e+00 5.890729076868000291e+00 3.898085188457999894e+00 5.842026990634000327e+00 5.849339780013999679e+00 3.957429491394000021e+00
4.244103025399999923e-02 7.777028865854999751e+00 3.970357380200000008e-02 3.902888775206999838e+00 7.740222252011999871e+00 7.364498973800000237e-02 7.664303760995999859e+00 3.922914879813999889e+00 7.815334722126999978e+00 3.986260742066999985e+00 3.754900689608999809e+00 2.635104097599999876e-02 1.294964494399999944e-02 8.938077669199999409e-02 3.860895122012999892e+00 3.897513725247999883e+00 7.761360068846999916e+00 3.952363165397999811e+00 7.690853860242000017e+00 3.880314634954999953e+00 3.915539406276999923e+00 3.938746918216000203e+00 3.962437170522000063e+00 3.828709573030999902e+00 2.060074002484999944e+00 2.038103343676000101e+00 1.928563083150999891e+00 5.880654812407000165e+00 1.849034681305999905e+00 2.016570773589000165e+00 1.954379124382999988e+00 5.914704943048000096e+00 1.875861361409000061e+00 5.852814120385000152e+00 5.791881185075999916e+00 1.952236414676000065e+00 1.964910931706000063e+00 1.895212877142999908e+00 5.819536385535999834e+00 5.819723328212999647e+00 1.944775698668999908e+00 5.883061265280000285e+00 1.933080142979000104e+00 5.768805628534000363e+00 5.808314416055999629e+00 5.802806654802999731e+00 5.854267594901999772e+00 5.925130342153999585e+00 7.718474705948000114e+00 2.050138521971000216e+00 1.929157790552999963e+00 3.920349223817999995e+00 2.144196368395999919e+00 2.094245072500999783e+00 2.189156977699999868e-02 6.063188524857999973e+00 1.895677223284000013e+00 3.913475864067999854e+00 5.884575588594000095e+00 1.829180344227999910e+00 7.751177080603000036e+00 2.036096210420000219e+00 5.881860801221000301e+00 3.838621419194999884e+00 1.849876817024999953e+00 5.750574253247999756e+00 7.784531449912000411e+00 5.663665953099999761e+00 5.772392108250000042e+00 3.882026465620000089e+00 6.031308901965999780e+00 5.897859259878999616e+00 2.076079597056000203e+00 4.473107042899999997e-02 1.994187618385000027e+00 5.764764083116999949e+00 6.216631575199999676e-02 2.070349588112999850e+00 1.822744940153999904e+00 3.960500330572000127e+00 2.019139648443999846e+00 5.815972843545999638e+00 3.897232265351000091e+00 1.893508088531000055e+00 1.826839171370999937e+00 7.765105113208999654e+00 5.973648763772000159e+00 5.940202332233000426e+00 3.459977776400000038e-02 5.764408626919999890e+00 1.991085867497000006e+00 3.835972081542999845e+00 5.977583882852999686e+00 5.540239127637000216e+00 3.884081404050999886e+00 5.995716353703000046e+00 2.089356575871000210e+00 1.835194439247000098e+00 4.628726262200000274e-02 5.742456752124000197e+00 1.841592812959000014e+00 4.644252199000000261e-03 1.948028517548999972e+00 5.737612669110999875e+00 2.680895904999999833e-03 5.950896872263999882e+00 5.879509274821000275e+00 7.828108299229000089e+00 1.836217400617000006e+00 1.966681761792999916e+00 3.964264473704000036e+00 5.852347146792999943e+00 2.017324342549999816e+00 3.914729806565000025e+00 2.048794612278999949e+00 5.894492025983000261e+00 3.892194583359999793e+00 5.848974198970999794e+00 5.792527440237000391e+00 3.890103243292000190e+00
5.664883210899999966e-02 7.791418792284999562e+00 4.243518762500000235e-02 3.907540572885999985e+00 7.736297064701999737e+00 8.531601253699999665e-02 7.654845238959000042e+00 3.931057549513000016e+00 7.822083848094999681e+00 3.999456740803999821e+00 3.726510473667000056e+00 3.453361745499999858e-02 1.542274815299999983e-02 1.087758830259999976e-01 3.856810050891000152e+00 3.907192400831000167e+00 7.762283344081000180e+00 3.970821447031000151e+00 7.682460767911000410e+00 3.880788031764999868e+00 3.915980308485000005e+00 3.952131292310999910e+00 3.987567484184999955e+00 3.816125965434999934e+00 2.061929181862999894e+00 2.081059693854999892e+00 1.912804370683000021e+00 5.910572565366000397e+00 1.843019984971999925e+00 2.014507670800000039e+00 1.966484260717000110e+00 5.909046114388000426e+00 1.837706136925000067e+00 5.850269791648999629e+00 5.801375920588999868e+00 1.987052219266999931e+00 1.982153212240999940e+00 1.892829223589000076e+00 5.828997440242000394e+00 5.815000802483999642e+00 1.915349495630999987e+00 5.904519798059999935e+00 1.934928414560999954e+00 5.752684083836999918e+00 5.827570947372000099e+00 5.792290284528999855e+00 5.889920563637000228e+00 5.908447965597999563e+00 7.766258825621999762e+00 2.074269053566999865e+00 1.897915285989000056e+00 3.908579701130999950e+00 2.141414619337000058e+00 2.127249562847000064e+00 7.781699630505999998e+00 6.064081467851999641e+00 1.928215605774000085e+00 3.934503043553999824e+00 5.940255849527999565e+00 1.834227873973999889e+00 7.686386814029999570e+00 2.048749815523000173e+00 5.929514901033000385e+00 3.823384108068000220e+00 1.834136679256000102e+00 5.719375406960000241e+00 7.778991941693999657e+00 5.665418737142999817e+00 5.785322531580000316e+00 3.871455171562999897e+00 6.001209160794999775e+00 5.915375255545000321e+00 2.019432922671999808e+00 5.707848563100000050e-02 2.020651157591999869e+00 5.800144110185000201e+00 1.254427803299999929e-02 2.069012576575000040e+00 1.878552997621999898e+00 3.930301625765999951e+00 2.058576788122000067e+00 5.810240808457000306e+00 3.905639701179000056e+00 1.896691397607999985e+00 1.813186887182000051e+00 3.157992205000000139e-03 5.970778431507000050e+00 5.936618642137999835e+00 4.063847746000000261e-03 5.790049983790000354e+00 1.983528344483999950e+00 3.894155173820000204e+00 5.955876016406000062e+00 5.644953126864000303e+00 3.925583882994999829e+00 5.967578598645999932e+00 2.097980487146999806e+00 1.857537559867000088e+00 5.672819696100000336e-02 5.727728813100999794e+00 1.819357085759000014e+00 3.199258801499999666e-02 1.923904229341000027e+00 5.792168089894000005e+00 2.567049118199999855e-02 6.000630208779999641e+00 5.949072153496000048e+00 7.795893723942000086e+00 1.819373237998999970e+00 1.939245364660000082e+00 3.952562157403999965e+00 5.885731860083000200e+00 2.106253102300999824e+00 3.979859042108000011e+00 2.076777699013999889e+00 5.881460068066999725e+00 3.915770148313999943e+00 5.843660885026999985e+00 5.723497653644000316e+00 3.823654475461999880e+00
7.055339983199999943e-02 2.862183894999999808e-03 4.060960604399999757e-02 3.911396722706999896e+00 7.735658281339000020e+00 9.174626535200000599e-02 7.653200808617000028e+00 3.938918788157999895e+00 7.828251013583000351e+00 4.007790826025000364e+00 3.707038215042000040e+00 3.932353990200000010e-02 2.314442914400000051e-02 1.216488532679999984e-01 3.857990237379000042e+00 3.912741181293000192e+00 7.765879217699000137e+00 3.986789560692999945e+00 7.683283630513000340e+00 3.883203697304999924e+00 3.918840102137000070e+00 3.962851414568000052e+00 4.010026009106000267e+00 3.811398120684999835e+00 2.048257267734999942e+00 2.103293129542000095e+00 1.910334646961000082e+00 5.938847481599999867e+00 1.861920712069000006e+00 2.010880724395000207e+00 1.970716472609999936e+00 5.908719724554000408e+00 1.829528850735999912e+00 5.857187757452999577e+00 5.810736168342000241e+00 2.012481377853999831e+00 1.986423778372000015e+00 1.891019654821999962e+00 5.836159146321000080e+00 5.824997497483000330e+00 1.896639916617999910e+00 5.922980057264999765e+00 1.925488366751000102e+00 5.745585784042000377e+00 5.835141855737999705e+00 5.797375969931000128e+00 5.911840007117000084e+00 5.897781858547999967e+00 2.703609800999999882e-03 2.055496682345999915e+00 1.865083291916999952e+00 3.899239783102999901e+00 2.107778448754999978e+00 2.144165458455999929e+00 7.778357059736999979e+00 6.029325671978000400e+00 1.977282053943999918e+00 3.942210588957999917e+00 5.966652241687000036e+00 1.844925249047999927e+00 7.657302169487000043e+00 2.069594985370000195e+00 6.007031178362000290e+00 3.852780615611000048e+00 1.819861228011000032e+00 5.719051835293000430e+00 7.775073282183000423e+00 5.692488710390000151e+00 5.800653882046000298e+00 3.893538316516000020e+00 5.970669571781000329e+00 5.938716049054000301e+00 1.956952149109999928e+00 5.372832218799999948e-02 2.030263820635000105e+00 5.831915698369000367e+00 7.793496728524999639e+00 2.077684950142999920e+00 1.946483195112000075e+00 3.933795591094999988e+00 2.077938258816999895e+00 5.826451122982000186e+00 3.941872262932000215e+00 1.877018753366000103e+00 1.786347233237000065e+00 2.283863714099999831e-02 5.958972965314999648e+00 5.921070411469999684e+00 7.774206681225999560e+00 5.799841466503999676e+00 1.997241011147999901e+00 3.934673381815999793e+00 5.933272444726999773e+00 5.756294803334999877e+00 3.957449717549000212e+00 5.948480627687000144e+00 2.099743804545000092e+00 1.920977520612999978e+00 5.880925074499999960e-02 5.699860403816000343e+00 1.806483634105999991e+00 5.748211455200000208e-02 1.893355359539000027e+00 5.864850194370999859e+00 2.520240237800000158e-02 6.022024892812999575e+00 6.023848468886000340e+00 7.764311373905999680e+00 1.798504541325999906e+00 1.912458537738999986e+00 3.940057548562000189e+00 5.922943895130000413e+00 2.162925490554000074e+00 3.994483066563999873e+00 2.096933029211999866e+00 5.861036600352999670e+00 3.962099829376999782e+00 5.819044993161999635e+00 5.676123729927000205e+00 3.828473677063000125e+00
8.269105298699999662e-02 1.136415297099999978e-02 3.532246362099999981e-02 3.915330727715999881e+00 7.737248283897000256e+00 9.329717568999999766e-02 7.657354375024000070e+00 3.948812777146999853e+00 7.831375786198999656e+00 4.012768972393000233e+00 3.698072993978999801e+00 3.871855728200000041e-02 3.650323919500000208e-02 1.259561641149999911e-01 3.863664960778999902e+00 3.912729219696000182e+00 7.771347964231000383e+00 3.998428902552999986e+00 7.693303824405999691e+00 3.890063233722000025e+00 3.926211212515999804e+00 3.969918911224000091e+00 4.027597708184999625e+00 3.815568965110000210e+00 2.025654550320000080e+00 2.094989267213999806e+00 1.924552206912000019e+00 5.957515700895999800e+00 1.893246153225000006e+00 2.008619280771999804e+00 1.964514889920000007e+00 5.921721158137000174e+00 1.856464462317999997e+00 5.877896260864000411e+00 5.827607267087000054e+00 2.018559470621999807e+00 1.979886670311999941e+00 1.888305005285999982e+00 5.836564418408999977e+00 5.849411677730000036e+00 1.895781898229000006e+00 5.934650019937000032e+00 1.903857153334000074e+00 5.752964271733000068e+00 5.827227209246999884e+00 5.819401705685000259e+00 5.906052183009999901e+00 5.903139492451000336e+00 7.817627091548000173e+00 2.012357945216999955e+00 1.836494888909999901e+00 3.913059690063000140e+00 2.044688996056000185e+00 2.147038624461000023e+00 7.815459186547999870e+00 5.954293944470999911e+00 2.036087499226999942e+00 3.918901641666999947e+00 5.961061366604999634e+00 1.856783334923000073e+00 7.705203056965999941e+00 2.080174762387000165e+00 6.103985332717000389e+00 3.891946785167999856e+00 1.819597447345000063e+00 5.752946385840999710e+00 7.807043224520000102e+00 5.746695410277999905e+00 5.805228569768000391e+00 3.918502106107999872e+00 5.950733532377999957e+00 5.969193911330999747e+00 1.903266529751000080e+00 2.388599857300000018e-02 2.016602200609999951e+00 5.862404910955000048e+00 3.632206507499999987e-02 2.106978703201999981e+00 2.012082219290999952e+00 3.987489169039000192e+00 2.070464559176000030e+00 5.857395054739000351e+00 3.955320116364999805e+00 1.826593382450999892e+00 1.759123513318000098e+00 5.418206295700000313e-02 5.943313470438999602e+00 5.900606262816999958e+00 7.813984277629000275e+00 5.770016373248999741e+00 2.026651280357000040e+00 3.905277409355000007e+00 5.921699885474000169e+00 5.836277985058000439e+00 3.941082783176999893e+00 5.962192881414000389e+00 2.099445260044999984e+00 2.011824731691000068e+00 3.249634733699999917e-02 5.663225870324000155e+00 1.808107751542999964e+00 7.243582566799999789e-02 1.861908380522999895e+00 5.937534650942000169e+00 1.077970895300000079e-02 6.012758468554999958e+00 6.086135800200000112e+00 7.777587978094000043e+00 1.771472787645000047e+00 1.903701814971999973e+00 3.961876272336999794e+00 5.961610751109000184e+00 2.161937100463000139e+00 3.941043691905000035e+00 2.107643232770000097e+00 5.849947552719999777e+00 3.999560239247000215e+00 5.779056793361999844e+00 5.670030188271000249e+00 3.899892077877999963e+00
9.247227156100000511e-02 2.111560092999999888e-02 2.660644966299999942e-02 3.918595027858000179e+00 7.739620419585000022e+00 8.971273598600000565e-02 7.667910160375999595e+00 3.959347847011999821e+00 7.829734525167999948e+00 4.011496136147999714e+00 3.698848584189999844e+00 3.183361799000000020e-02 5.267122661299999953e-02 1.215849241320000051e-01 3.872698973393000177e+00 3.908412715824999939e+00 7.777670238828999771e+00 4.005306207347000047e+00 7.710992572043999793e+00 3.900957599988000180e+00 3.937401461976000050e+00 3.970838380786999799e+00 4.036684700672999782e+00 3.827752020029000057e+00 2.005269047824000062e+00 2.066499578911999979e+00 1.943719812572999972e+00 5.957330552733999696e+00 1.927354717902000081e+00 2.006052642940999942e+00 1.951112671069000104e+00 5.941087939790000050e+00 1.898462300597999919e+00 5.906059104217000311e+00 5.855498769109000357e+00 2.010592529295999853e+00 1.968003532433000080e+00 1.892633880870000063e+00 5.838676281212999974e+00 5.883069955325000322e+00 1.909470057367000040e+00 5.940737013817999568e+00 1.880141273343999941e+00 5.764205155075000420e+00 5.817719134585000340e+00 5.845523318846000294e+00 5.879009001106999754e+00 5.923234194667999830e+00 7.822682026280999956e+00 1.972489269940999934e+00 1.813695869081999978e+00 3.906415356801999916e+00 1.968083380254999959e+00 2.142019950613000212e+00 1.138695369699999939e-02 5.851105506567000347e+00 2.105519473580999890e+00 3.908888666375999854e+00 5.935177207973000080e+00 1.875687366967000003e+00 7.799369556851000418e+00 2.068098141269000045e+00 6.194484042163000304e+00 3.919787537108999853e+00 1.836130546486999915e+00 5.804148084227000126e+00 2.456721885100000141e-02 5.814533747628000349e+00 5.795266329711999731e+00 3.937785671737000115e+00 5.942732644711999690e+00 6.005584971702999653e+00 1.867692590389999907e+00 4.488837467000000164e-03 1.989747717566999974e+00 5.894105785173000100e+00 8.560289982200000591e-02 2.152882759330000173e+00 2.061745939010999784e+00 4.016667474039000041e+00 2.044149515791000127e+00 5.891507643937999639e+00 3.965777324175999929e+00 1.764574189029999962e+00 1.747077501883999906e+00 6.704837629700000079e-02 5.923947694366000327e+00 5.892122716049000175e+00 5.837790585799999821e-02 5.702737308806000271e+00 2.057864306284999945e+00 3.860604130861999828e+00 5.913736631163000190e+00 5.877075721103000028e+00 3.898357205966000105e+00 6.007775437008000097e+00 2.096262100455999811e+00 2.099939529778000136e+00 2.646848304500000124e-02 5.632620321716999889e+00 1.823135944049000035e+00 4.934049623700000053e-02 1.830855818864000062e+00 5.995661978318000074e+00 7.003187733000000234e-03 5.986916742117999846e+00 6.125772705296999909e+00 7.852405264360999837e+00 1.740785240632999997e+00 1.923452611941000034e+00 3.979868141034000217e+00 6.006298654104999635e+00 2.121193555485000104e+00 3.873327490113999794e+00 2.108793917683999819e+00 5.862167304691999981e+00 3.999305199190999804e+00 5.739939901289999646e+00 5.707083160637999697e+00 3.959201254078000165e+00
9.986384381700000312e-02 3.407717718600000029e-02 1.436793256099999985e-02 3.919420706001000010e+00 7.741743725785999786e+00 8.136428750499999363e-02 7.687274766848999796e+00 3.967071762274000157e+00 7.825040878698000135e+00 3.999948454735999803e+00 3.707982738985000193e+00 1.959309723199999936e-02 6.784639871299999458e-02 1.095792162889999977e-01 3.883612250729000070e+00 3.902180704113999976e+00 7.783948071585999884e+00 4.007486013749000264e+00 7.734638909002000240e+00 3.913545783487999863e+00 3.948754480971000014e+00 3.962940193132999944e+00 4.035059269642999880e+00 3.844932054316000158e+00 1.991382174813999928e+00 2.033985980729000165e+00 1.952990313216999896e+00 5.938070349728000075e+00 1.956541660310000097e+00 1.996354186662999908e+00 1.938606539865000089e+00 5.950693603087000128e+00 1.936262176125999934e+00 5.929976444153999715e+00 5.892750079620999948e+00 1.992761235031000000e+00 1.956410533127999951e+00 1.907909931530000103e+00 5.852640225401000151e+00 5.915719610225999681e+00 1.924376796648000099e+00 5.947356996311000010e+00 1.871025967590999928e+00 5.771485649877000412e+00 5.820180437910000393e+00 5.857353942786000189e+00 5.847699317451000134e+00 5.948993830763999568e+00 8.191692960000000268e-04 1.954514373265999971e+00 1.794475097699000044e+00 3.868162581960000068e+00 1.893449477627999977e+00 2.138700616324999970e+00 7.831865894156000429e+00 5.746120925774000021e+00 2.184101717496000017e+00 3.935621546578000007e+00 5.908699363668000082e+00 1.905609061652000058e+00 3.461630497700000225e-02 2.037162359918000210e+00 6.251116909780000341e+00 3.932928449094999834e+00 1.867529377224000031e+00 5.845029435855000344e+00 2.360952831700000032e-02 5.871639011819000054e+00 5.777365571876999617e+00 3.966438712234999997e+00 5.940777786475000433e+00 6.046177447226999568e+00 1.850412282239999984e+00 1.787668875999999865e-02 1.965975347577000099e+00 5.927543291994999741e+00 5.782255673199999946e-02 2.195993709695000184e+00 2.086850028824000169e+00 3.979312506375999980e+00 2.014403238538999830e+00 5.913372510051999598e+00 3.986142000486999848e+00 1.720811087439999998e+00 1.767896138740999934e+00 3.360763784100000151e-02 5.899485112982000068e+00 5.912154087692999660e+00 8.192831150800000684e-02 5.625171126777999575e+00 2.075979943385000137e+00 3.886630493649000151e+00 5.893152688399999839e+00 5.893104125352000011e+00 3.892868261138000108e+00 6.062213858310999903e+00 2.089299781530999933e+00 2.149322478459999797e+00 6.777025804399999798e-02 5.627289357760999700e+00 1.840399014244999965e+00 7.869521210175999926e+00 1.799945044712000009e+00 6.024474130789999826e+00 1.807945503500000065e-02 5.968716678635000328e+00 6.142583087151000321e+00 5.921082493299999888e-02 1.710946089679999949e+00 1.969210651345999930e+00 3.962589128623000168e+00 6.056373696429999676e+00 2.089918147410000149e+00 3.858474329547000092e+00 2.101494166276999920e+00 5.898665508208000396e+00 3.967021610366999962e+00 5.719439044648000348e+00 5.765740190405000298e+00 3.981011734478999919e+00
1.046147232389999931e-01 5.059356514300000079e-02 7.885919065526000082e+00 3.916007681323999901e+00 7.741656639330000367e+00 6.944146588900000638e-02 7.716120022816999935e+00 3.969995928979999977e+00 7.820969152300000005e+00 3.976101439573000107e+00 3.725045560597000094e+00 4.363881447999999955e-03 7.877245168400000275e-02 9.018839617500000461e-02 3.894865828117000106e+00 3.896418151822000020e+00 7.787930818190000437e+00 4.004616274380000007e+00 7.761637667347000225e+00 3.926179647046000198e+00 3.956011303891000086e+00 3.945580397429000019e+00 4.023295938959999596e+00 3.863091182489999831e+00 1.978326277749000051e+00 2.009517632396999876e+00 1.949241896171000077e+00 5.910243403881000113e+00 1.973834453705999969e+00 1.981983894300999971e+00 1.932783241544000052e+00 5.936403253035000382e+00 1.962623684159999993e+00 5.939057700471000345e+00 5.936651742749999627e+00 1.975201222544999968e+00 1.950559081048000021e+00 1.924829204569999952e+00 5.874761284086999602e+00 5.935857439078000120e+00 1.921092918031999996e+00 5.952207976535000000e+00 1.879969223625000074e+00 5.782937663261000338e+00 5.835311751786999679e+00 5.847140005848999955e+00 5.826001723200000093e+00 5.962007748085000003e+00 7.827152706331999887e+00 1.959288339096999954e+00 1.775487102373999981e+00 3.862267018948000175e+00 1.826181494457000065e+00 2.142757325429999860e+00 7.820133102855000296e+00 5.668025205504999775e+00 2.255798055349000020e+00 3.956892028192000144e+00 5.895824986792000288e+00 1.939479470490999891e+00 5.527586263400000033e-02 2.002952648387000156e+00 6.259312168953999667e+00 3.921163074124999870e+00 1.912391228124000087e+00 5.855942238804000333e+00 7.824538723196999612e+00 5.894214580957999772e+00 5.764790827421999886e+00 3.991422177878999999e+00 5.938100240346000369e+00 6.089312921450999561e+00 1.845843958152999953e+00 2.861982926000000010e-02 1.951890267245999899e+00 5.960303670966999867e+00 7.832228641624999987e+00 2.208952238435999860e+00 2.087226871962000185e+00 3.918502292662000119e+00 1.995101081612999927e+00 5.905567373309000168e+00 3.963702130710000215e+00 1.710994922712000044e+00 1.835886571082999907e+00 7.839644467052999666e+00 5.871301083656000230e+00 5.959454996156999584e+00 6.219719576700000196e-02 5.576813175549999890e+00 2.071235077606000008e+00 3.978851872963999892e+00 5.857274494519000285e+00 5.900537899681999932e+00 3.943601467087999968e+00 6.101826429723000267e+00 2.081394238925999840e+00 2.139934654000000158e+00 9.698109259199999554e-02 5.657275746932000082e+00 1.843327823984999947e+00 7.814690721526999617e+00 1.770152865428000100e+00 6.010937776323999948e+00 3.573949819899999852e-02 5.978041590744999745e+00 6.145107336324000080e+00 9.223876501699999897e-02 1.688160028271000090e+00 2.029190049439999921e+00 3.954297739830999969e+00 6.100137340878999836e+00 2.102887474725000150e+00 3.897775714046999962e+00 2.088838066933000004e+00 5.946969209071999884e+00 3.936949303526000143e+00 5.717678237503999839e+00 5.806802452587000118e+00 3.995592876376000024e+00