-2.978487911230000100e+04
-2.978403274070000043e+04
-2.978371139639999819e+04
-2.978378876619999937e+04
-2.978367873680000048e+04
-2.978333191269999952e+04
-2.978373103730000003e+04
-2.978358557619999920e+04
-2.978333215199999904e+04
-2.978319277209999927e+04
-2.978355109349999839e+04
-2.978350558939999974e+04
-2.978340456410000115e+04
-2.978313467559999845e+04
-2.978309321130000171e+04
-2.978283398479999960e+04
-2.978204708830000163e+04
-2.978197306509999908e+04
-2.978198919720000049e+04
-2.978231867599999896e+04
-2.978200582969999959e+04
-2.978143190239999967e+04
-2.978098241380000036e+04
-2.978069552140000087e+04
-2.978073476189999928e+04
-2.978099807460000011e+04
-2.978134192020000046e+04
-2.978099317890000020e+04
-2.978063514779999969e+04
-2.978097337409999818e+04
-2.978171628369999962e+04
-2.978209736179999891e+04
-2.978241388450000159e+04
-2.978221478070000012e+04
-2.978193634139999995e+04
-2.978229066940000121e+04
-2.978257215920000090e+04
-2.978284506889999830e+04
-2.978291050130000076e+04
-2.978303424100000120e+04
-2.978314672150000115e+04
-2.978337485119999837e+04
-2.978373738379999850e+04
-2.978367690740000035e+04
-2.978341063560000111e+04
-2.978342810059999829e+04
-2.978375568410000051e+04
-2.978392787099999987e+04
-2.978392487690000053e+04
-2.978383532310000010e+04
-2.978387837850000142e+04
-2.978381370590000006e+04
-2.978373494660000142e+04
-2.978378295250000156e+04
-2.978389603189999980e+04
-2.978384204920000047e+04
-2.978379386710000108e+04
-2.978390993059999892e+04
-2.978385098799999832e+04
-2.978350594679999995e+04
-2.978327180669999871e+04
-2.978313794720000078e+04
-2.978310992919999990e+04
-2.978324223260000144e+04
-2.978298027200000070e+04
-2.978262776559999838e+04
-2.978250779709999915e+04
-2.978282276279999860e+04
-2.978280623070000001e+04
-2.978281104849999974e+04
-2.978199732779999977e+04
-2.978178680579999855e+04
-2.978129328800000076e+04
-2.978099051319999853e+04
-2.978082257319999917e+04
-2.978075687589999870e+04
-2.978079916740000044e+04
-2.978091764459999831e+04
-2.978084415570000056e+04
-2.978147979900000064e+04
-2.978217336989999967e+04
-2.978180842390000180e+04
-2.978226080559999900e+04
-2.978191510510000080e+04
-2.978203271640000094e+04
-2.978197393720000036e+04
-2.978271570000000065e+04
-2.978230915409999943e+04
-2.978283062699999937e+04
-2.978308182149999993e+04
-2.978327206149999984e+04
-2.978320338350000020e+04
-2.978352382260000013e+04
-2.978367952779999905e+04
-2.978342490579999867e+04
-2.978350014390000069e+04
-2.978353003700000045e+04
-2.978360523399999875e+04
-2.978358015460000024e+04
-2.978390431900000112e+04
-2.978398777550000159e+04
-2.978398346110000057e+04
-2.978386404019999827e+04
-2.978370792789999905e+04
-2.978376398519999930e+04
-2.978377921900000001e+04
-2.978377594170000157e+04
-2.978366391120000117e+04
-2.978363287349999882e+04
-2.978352614149999863e+04
-2.978336700840000049e+04
-2.978336566609999863e+04
-2.978324488439999914e+04
-2.978314761160000126e+04
-2.978282276759999877e+04
-2.978293653890000132e+04
-2.978307157279999956e+04
-2.978312458939999851e+04
-2.978266832179999983e+04
-2.978195180370000162e+04
-2.978180028820000007e+04
-2.978156495189999987e+04
-2.978203138400000171e+04
-2.978158084310000049e+04
-2.978156883749999906e+04
-2.978108131259999936e+04
-2.978110458450000078e+04
-2.978082919689999835e+04
-2.978122837069999878e+04
-2.978162941940000019e+04
-2.978133354250000048e+04
-2.978156206630000088e+04
-2.978150709270000152e+04
-2.978221905659999902e+04
-2.978187822180000148e+04
-2.978216770489999908e+04
-2.978295147350000116e+04
-2.978289557530000093e+04
-2.978282975050000096e+04
-2.978267303280000124e+04
-2.978301761110000007e+04
-2.978303539299999829e+04
-2.978335252530000071e+04
-2.978326356529999975e+04
-2.978343209159999969e+04
-2.978359979129999920e+04
-2.978349526310000147e+04
-2.978377922720000061e+04
-2.978372911139999997e+04
-2.978375021310000011e+04
-2.978367411580000044e+04
-2.978380579070000022e+04
-2.978385208219999913e+04
-2.978383349150000140e+04
-2.978381303770000159e+04
-2.978361832990000039e+04
-2.978362793189999866e+04
-2.978367576120000012e+04
-2.978364054069999838e+04
-2.978353200740000102e+04
-2.978364522280000165e+04
-2.978337790440000026e+04
-2.978321888019999824e+04
-2.978325010119999934e+04
-2.978295983669999987e+04
-2.978270984460000182e+04
-2.978284458299999824e+04
-2.978258350630000132e+04
-2.978250426679999873e+04
-2.978250724869999976e+04
-2.978239842760000101e+04
-2.978202187780000168e+04
-2.978184383069999967e+04
-2.978152234039999894e+04
-2.978158195219999834e+04
-2.978115397559999838e+04
-2.978111186299999827e+04
-2.978131047830000171e+04
-2.978104738899999938e+04
-2.978107012780000150e+04
-2.978165887970000040e+04
-2.978191713320000053e+04
-2.978166343019999840e+04
-2.978200076389999958e+04
-2.978226304130000062e+04
-2.978204561969999850e+04
-2.978243045730000085e+04
-2.978279035559999829e+04
-2.978251580240000112e+04
-2.978255741249999846e+04
-2.978291535469999872e+04
-2.978305905690000145e+04
-2.978329992069999935e+04
-2.978367222799999945e+04
-2.978367496820000088e+04
-2.978336098290000155e+04
-2.978329547029999958e+04
-2.978348828430000140e+04
-2.978368216970000140e+04
-2.978381379699999889e+04
-2.978386543140000140e+04
-2.978372916400000031e+04
-2.978370728080000117e+04
-2.978380744330000016e+04
-2.978373641080000016e+04
-2.978376214310000069e+04
-2.978376103470000089e+04
-2.978362905640000099e+04
-2.978349223120000170e+04
-2.978359734319999916e+04
-2.978362396979999903e+04
-2.978346770749999996e+04
-2.978339572190000035e+04
-2.978322878050000145e+04
-2.978318452949999846e+04
-2.978305592830000023e+04
-2.978273021710000103e+04
-2.978251239179999902e+04
-2.978269642079999903e+04
-2.978268951799999923e+04
-2.978216753329999847e+04
-2.978197560339999836e+04
-2.978192987279999943e+04
-2.978153000529999917e+04
-2.978180168050000066e+04
-2.978179731489999904e+04
-2.978113735689999885e+04
-2.978062878320000164e+04
-2.978121562510000149e+04
-2.978193289830000140e+04
-2.978150203509999847e+04
-2.978113239370000156e+04
-2.978154537640000126e+04
-2.978212267589999828e+04
-2.978241642030000003e+04
-2.978256443030000082e+04
-2.978221240229999967e+04
-2.978198471810000046e+04
-2.978217593130000023e+04
-2.978282625320000079e+04
-2.978311595830000078e+04
-2.978299312300000020e+04
-2.978283310010000059e+04
-2.978319692439999926e+04
-2.978345345440000165e+04
-2.978366455190000124e+04
-2.978375960320000013e+04
-2.978368481320000137e+04
-2.978350748480000038e+04
-2.978357586989999982e+04
-2.978370249010000043e+04
-2.978381749649999983e+04
-2.978372891159999926e+04
-2.978363615760000175e+04
-2.978354865150000114e+04
-2.978382819569999992e+04
-2.978388765209999838e+04
-2.978380173819999982e+04
-2.978372763370000030e+04
-2.978376886580000064e+04
-2.978351780299999882e+04
-2.978329296420000173e+04
-2.978337023110000155e+04
-2.978324065880000126e+04
-2.978321487740000157e+04
-2.978333253310000146e+04
-2.978306790349999937e+04
-2.978237022470000011e+04
-2.978237827209999887e+04
-2.978243413819999842e+04
-2.978270726840000134e+04
-2.978249660809999841e+04
-2.978206858569999895e+04
-2.978145045079999909e+04
-2.978156241719999889e+04
-2.978186078300000008e+04
-2.978197644479999872e+04
-2.978179733109999870e+04
-2.978076415460000135e+04
-2.978119210499999826e+04
-2.978138904180000100e+04
-2.978135720700000093e+04
-2.978112751589999971e+04
-2.978138131910000084e+04
-2.978182071949999954e+04
-2.978229885450000074e+04
-2.978271527780000179e+04
-2.978220812129999831e+04
-2.978244005069999912e+04
-2.978264553629999864e+04
-2.978294635679999919e+04
-2.978270502259999921e+04
-2.978320421169999827e+04
-2.978291037130000041e+04
-2.978322513690000051e+04
-2.978355547830000069e+04
-2.978352728349999961e+04
-2.978326058049999847e+04
-2.978369418950000181e+04
-2.978364036019999912e+04
