-1.716006004000000112e-02 2.216835643399999931e-02 -4.374518259799999725e-02 7.029136047000000311e-03 -2.208288273900000168e-02 -7.179937892000000377e-02 1.365381675419999885e-01 -7.906932585000000027e-03 2.996862860900000036e-02 -1.137103357509999940e-01 6.689699271299999472e-02 -8.761080355000000833e-03 -8.358048750600000076e-02 -6.420213335799999921e-02 3.596462888399999669e-02 9.862582500600000635e-02 -4.586493685600000203e-02 4.313666230000000323e-02 5.794539174399999937e-02 3.213398063200000043e-02 -5.817657748800000167e-02 -2.659707307699999898e-02 3.498809057800000150e-02 5.097870524900000033e-02 -1.342742805599999867e-01 1.441863729310000064e-01 -1.274777636739999886e-01 8.410300629299999331e-02 -1.396401152410000068e-01 -9.646416633700000132e-02 7.499099720200000374e-02 -2.010648431450000051e-01 -2.087100633129999883e-01 -1.058420325500000064e-01 1.457171725599999967e-01 1.871952112489999875e-01 1.462360657000000008e-01 5.463704197199999862e-02 1.279443432830000005e-01 -1.287746066719999971e-01 -2.207149962050000136e-01 9.185553978700000677e-02 1.082106586260000031e-01 -2.989347364500000159e-02 2.362509041020000033e-01 -9.374200308499999745e-02 2.102822776859999965e-01 -2.042353824960000119e-01 -1.881312076159999958e-01 -4.998743380000000153e-02 -3.474047274199999757e-02 2.561454972239999850e-01 4.902732032599999706e-02 1.679787154699999979e-02 9.877684579499999840e-02 4.317057941099999852e-02 5.500597128000000308e-02 -1.886433985940000058e-01 -3.437536349999999836e-04 7.518934439299999883e-02 -1.086492975100000064e-02 4.266722432299999840e-02 8.247832568999999975e-03 -2.588763845600000058e-01 -6.986762005600000158e-02 -4.858723497299999999e-02 1.270769635769999906e-01 -8.667444355200000505e-02 5.200806381899999997e-02 -2.690581881249999863e-01 -4.834468362299999822e-02 -2.591930000000000102e-05 -4.748765373700000042e-02 -1.718466560440000124e-01 3.681306948399999668e-02 9.977928119999999578e-04 2.777441639609999902e-01 -8.084141608700000370e-02 1.582708616099999868e-02 5.319869884999999660e-02 6.401023923199999910e-02 5.922136410699999770e-02 -3.966876639870000054e-01 6.831910016999999391e-02 -3.392157995299999868e-02 2.775073687549999835e-01 -5.681105453799999844e-02 8.594334018700000577e-02 1.458395636850000066e-01 1.126748426390000030e-01 3.956072256100000295e-02 -4.825995284899999710e-02 -1.198336879259999932e-01 1.845730010899999940e-01 -1.030030022890000008e-01 -1.034059803869999961e-01 -5.621794294500000178e-02 5.864569267999999828e-03 -2.909601365060000000e-01 4.723305618999999733e-02 1.147636585900000013e-02 2.365845144329999927e-01 -3.641358361799999777e-02 9.917348224399999412e-02 1.317806300699999877e-01 6.775588524099999954e-02 7.725532283199999795e-02 -2.042613326099999849e-02 3.485666462399999999e-02 -5.844804534800000090e-02 2.850927338729999927e-01 4.054439832799999754e-02 1.665751447350000136e-01 -3.337276982500000239e-02 1.600144479999999884e-04 -5.240296390699999973e-02 -7.927006400100000683e-02 2.094386763600000062e-02 -1.432735568909999924e-01 -2.581743722470000169e-01
-4.692382694299999935e-02 1.620794101019999989e-01 -2.477257032319999941e-01 6.178150959999999942e-03 -8.927516237499999452e-02 -3.669797312170000048e-01 7.316289302220000401e-01 -8.592194127699999406e-02 1.378591866659999998e-01 -7.253280425950000554e-01 3.412411880990000035e-01 2.907001605500000169e-02 -3.632682315840000120e-01 -3.157151282539999992e-01 1.992146700790000113e-01 4.426473476239999871e-01 -1.740667154810000006e-01 1.981386665340000020e-01 3.613016711049999996e-01 1.179476143370000035e-01 -2.699465666340000181e-01 -1.629976803959999887e-01 1.330194415379999939e-01 2.681116952490000260e-01 -8.444763455899999549e-01 6.765404762129999527e-01 -5.111942386710000008e-01 4.314994036850000048e-01 -6.832797983759999472e-01 -5.135102002429999812e-01 3.737675634520000179e-01 -1.020634316133999908e+00 -9.634957299040000089e-01 -4.986194139210000098e-01 1.171594172585999960e+00 8.983725087560000544e-01 6.733188330229999963e-01 3.410000090679999873e-01 4.864712682619999895e-01 -5.753269418459999729e-01 -1.094682649981000067e+00 4.202918674519999787e-01 3.806437205820000225e-01 -1.492317611410000078e-01 1.213822883997000002e+00 -4.178069251300000064e-01 9.256336579599999670e-01 -1.026260084822000040e+00 -5.213446939260000246e-01 -2.211924112729999892e-01 -1.792991776060000042e-01 9.812107984419999873e-01 1.859451889020000137e-01 5.985207913199999674e-02 1.683360254529999989e-01 9.667588859900000386e-02 3.115467857499999993e-01 -6.529666563960000447e-01 2.792540727099999953e-02 3.903453805229999962e-01 -2.742187634589999812e-01 2.046218461479999973e-01 7.730656920099999996e-02 -9.921940749319999586e-01 -3.654889413610000193e-01 -2.462417639889999954e-01 4.411601217350000215e-01 -3.126386394949999814e-01 2.925726085679999922e-01 -1.048164414896999963e+00 -3.289106538700000137e-01 -1.706206299999999927e-04 -3.359473638029999987e-01 -6.534526719330000510e-01 2.145205262719999950e-01 6.007750592499999653e-02 8.907470195400000179e-01 -4.322380456820000272e-01 1.617187268699999958e-01 -2.166610928100000041e-02 3.134331834329999733e-01 3.284981203710000131e-01 -1.870460849232999934e+00 3.907506342800000088e-01 -1.405190341130000131e-01 1.109526589647999995e+00 -3.094002119700000053e-01 3.343075255690000080e-01 5.187231524369999569e-01 5.798896886140000317e-01 1.478684128860000002e-01 -1.107202817200000043e-02 -5.998291124479999681e-01 1.087264029871999993e+00 -1.602266702419999911e-01 -6.310539550360000360e-01 -3.333674028279999813e-01 1.383217826729999933e-01 -1.029166593777000038e+00 2.625495419480000092e-01 6.696448315799999329e-02 8.232861311939999593e-01 -1.863088795819999866e-01 5.726528061050000229e-01 5.315856091799999739e-01 3.436559332540000122e-01 3.806137135789999792e-01 -2.198704157939999904e-01 1.651305456809999961e-01 -2.905089215509999989e-01 9.356407236910000425e-01 1.717364324819999899e-01 7.826717204519999527e-01 2.237707188839999917e-01 9.370829728999999914e-03 -2.354988408389999954e-01 -3.073033842199999754e-01 5.590852106900000285e-02 -7.605213581449999927e-01 -1.142167865895999945e+00
2.850353793499999996e-02 3.650474943020000085e-01 -4.397460421850000190e-01 -1.096063336819999984e-01 2.333620923600000091e-02 -5.446908052969999803e-01 1.013555403308999958e+00 -2.771088365380000029e-01 1.389478345300000084e-01 -1.095658113885999985e+00 4.531450437510000095e-01 8.525135465600000573e-02 -2.516241563270000259e-01 -3.887143277640000005e-01 3.478426102320000268e-01 3.601463285329999930e-01 -6.834019965899999771e-02 1.763657313329999865e-01 5.649339431969999659e-01 1.404244906299999957e-02 -3.046970563570000068e-01 -2.528457763570000072e-01 6.630096688999999668e-03 4.068412335459999918e-01 -9.689095405709999831e-01 6.099642286709999750e-01 -4.454711006009999807e-01 3.658859277929999987e-01 8.636457628700000555e-02 -7.809367481250000242e-01 3.903619113930000273e-01 -1.206790900936999922e+00 -8.687692747640000102e-01 -5.419886979710000219e-01 7.695606546159999839e-01 1.144831591144999994e+00 5.847577961509999867e-01 3.506639427109999874e-01 5.896076276360000534e-01 -4.357069707080000187e-01 -1.197799009481999910e+00 4.292810018989999810e-01 2.958849976230000234e-01 -4.524475961200000174e-02 1.260885842978999971e+00 -4.000789276619999835e-01 9.346612173339999829e-01 -1.358496074392000041e+00 5.321778766389999582e-01 -4.822005874029999806e-01 -2.458258696020000078e-01 -1.091515186110000035e-01 5.377558081400000273e-02 -2.742342639199999918e-02 -5.150643498170000001e-01 -5.059327052399999886e-02 4.310514790080000047e-01 4.790987704199999725e-02 -8.055713553200000154e-02 4.309368288559999871e-01 -7.674880309310000426e-01 3.368055540589999786e-01 2.376184645999999956e-01 -4.073093471259999765e-01 -4.680991366169999779e-01 -1.540915593670000028e-01 -2.992282009400000151e-02 -1.882373223519999972e-01 3.768004349280000276e-01 -4.033967710649999927e-01 -4.419973778949999876e-01 1.952186032999999937e-03 -4.320707803170000250e-01 -2.421419127099999971e-02 2.173208087160000135e-01 1.356438109999999952e-03 -4.694011258119999974e-01 -4.881293764610000196e-01 3.140339635869999757e-01 -6.510911602800000253e-01 3.057842641790000093e-01 4.494570777690000130e-01 -4.447161765139999723e-01 3.460393353560000107e-01 -2.700782226060000069e-01 4.969336678699999843e-01 -3.988881589020000229e-01 2.502477046120000215e-01 -1.291877531189999928e-01 6.244775442519999720e-01 2.330204825030000038e-01 6.696794741429999975e-01 -6.548192691590000170e-01 1.421540328784000051e+00 3.973686944200000015e-01 -8.424680447889999479e-01 -3.834234215430000203e-01 3.604558637529999832e-01 -1.505463483349999965e-01 2.090464744130000052e-01 7.183014084100000640e-02 2.943911206300000027e-01 -2.516605524659999982e-01 7.660882078840000053e-01 3.525741500699999809e-01 2.351757262510000002e-01 4.945390953530000022e-01 -3.785209697999999956e-01 2.044594241999999895e-01 -3.728582804330000111e-01 -1.541570422759999948e-01 2.145993596780000068e-01 8.381342456529999874e-01 9.406659464300000106e-01 -3.878273079499999776e-02 -3.332617935780000096e-01 8.080102185399999637e-02 -5.228751698300000000e-02 -7.786130921280000061e-01 -9.825912460600000342e-01
6.234145104799999892e-02 4.324943442729999865e-01 -5.208312803700000382e-01 -2.211350755560000103e-01 1.649519071349999921e-01 -5.767908174279999800e-01 8.920432866680000350e-01 -3.507067815880000050e-01 -8.634158909999999900e-04 -9.360351837999999480e-01 5.680389852220000257e-01 -7.632144945999999597e-02 1.433449326469999896e-01 -4.383153163390000051e-01 4.412562188429999810e-01 -7.003794167000000626e-02 8.510072454700000344e-02 -4.647722582000000241e-02 6.406916574469999626e-01 -8.035011317599999314e-02 -1.312019583310000126e-01 -2.977110553860000119e-01 -2.150386282769999879e-01 5.269415085609999716e-01 -8.275422631240000326e-01 -5.568841553300000330e-02 1.947400810700000012e-02 7.197304196999999848e-02 1.404313175786999990e+00 -4.514443241750000224e-01 -3.026722065900000133e-02 -6.530975765700000046e-01 1.624707818199999931e-01 -1.531606813939999923e-01 -1.235257869390000013e-01 6.375439414379999725e-01 -1.918563117219999892e-01 2.243562554809999943e-01 3.901401819299999962e-01 2.407507216860000077e-01 -3.493565047859999995e-01 8.043410590999999776e-02 -1.337515471809999912e-01 4.982197981400000170e-02 3.295103442039999941e-01 1.153861124150000056e-01 2.481184146940000057e-01 -7.774073105740000322e-01 9.629425552350000528e-01 -6.980681643110000500e-01 -1.810372702330000083e-01 -8.439460636150000195e-01 -2.975180426060000105e-01 -2.260543776639999947e-01 -5.272221169470000524e-01 -3.413868724069999971e-01 4.230280054769999798e-01 4.755869035979999881e-01 -3.186108602370000265e-01 2.902248973339999760e-01 -5.021875910359999695e-01 3.365311285129999885e-01 4.206679678470000017e-01 6.544847485489999617e-01 -2.750764495399999898e-01 1.919810842330000045e-01 -4.407619965560000130e-01 1.543972832790000138e-01 2.708938315630000093e-01 5.230542169909999650e-01 -2.832518401040000078e-01 2.636121369700000078e-02 -3.184740212500000167e-01 3.136191996639999813e-01 -1.158543525500000011e-02 -9.282471620700000203e-02 -1.398103357789000079e+00 -1.820550525999999891e-01 3.455357836579999731e-01 -5.955739183129999947e-01 -2.761662126000000161e-02 4.203029724269999878e-01 1.198066076331000041e+00 -1.344294816300000035e-02 -3.335632500840000070e-01 -3.002989097170000177e-01 -3.270076777099999998e-01 -7.360945631300000458e-02 -8.908295231809999493e-01 2.570000369950000141e-01 3.140135766830000064e-01 8.494424714599999593e-01 -3.790355005780000064e-01 9.451939796630000057e-01 5.218544163020000237e-01 -4.623244876590000274e-01 -2.734369072489999941e-01 6.255355851030000025e-01 5.303707193200000169e-01 -8.193738839299999355e-02 6.660744507400000181e-02 -1.349118064769999903e-01 -2.067393919059999918e-01 6.035774892840000128e-01 -6.443677304500000647e-02 -1.590727694100000089e-01 3.547941926650000077e-01 -3.651303975790000100e-01 7.395406694400000203e-02 -2.473605314740000005e-01 -9.184505573819999880e-01 1.638043024189999863e-01 2.248556926580000115e-01 3.826757037649999860e-01 -9.399851085999999523e-02 -3.140543253920000111e-01 5.195085196319999543e-01 -2.361328497279999994e-01 -2.002648490049999952e-01 -2.605638302200000145e-02
-5.974964926299999868e-02 2.401626671969999960e-01 -4.158757232659999747e-01 -1.629877934500000014e-01 1.571989998539999878e-01 -4.939875553570000077e-01 5.580415412629999850e-01 -1.236500423770000023e-01 -2.241470329259999950e-01 -5.232888285390000505e-01 7.982379494300000378e-01 -3.311415630699999779e-01 4.928982284890000010e-01 -6.318594870789999707e-01 4.083342862580000010e-01 -4.977377327420000053e-01 8.976672782200000034e-02 -3.585639963159999999e-01 6.981080711699999553e-01 8.791613606600000297e-02 1.451714063850000069e-01 -3.475470526009999950e-01 -3.755129317140000200e-01 6.607588440249999584e-01 -8.146299770510000426e-01 -1.138281328576999929e+00 6.919623413580000548e-01 -1.690328420749999949e-01 1.240876466939000000e+00 -7.458814767200000473e-02 -4.489456593889999958e-01 2.484964850209999965e-01 1.602845577741000005e+00 4.355898214939999957e-01 -1.147108394890000022e-01 -5.918398677809999509e-01 -7.454268397279999459e-01 6.119983069999999567e-03 -2.212262681530000052e-01 7.126737197300000437e-01 5.970442194289999893e-01 -2.485509722639999974e-01 -6.154493840019999995e-01 3.880144009939999750e-01 -7.361595783209999855e-01 7.666781052550000197e-01 -8.028906453809999677e-01 3.100725241160000034e-01 -1.598964031210000081e-01 -7.551377597199999681e-01 -1.235195975199999963e-02 8.357095335899999977e-02 -5.338164691560000064e-01 -2.932934768859999930e-01 4.251058129320000045e-01 -6.262011074619999729e-01 2.431421159219999961e-01 -2.776949131449999997e-01 -5.377836913400000363e-01 7.224926846699999960e-02 6.088395691639999496e-01 1.293465841539999939e-01 4.600116727560000229e-01 7.953619025699999456e-01 3.189485295399999837e-02 5.199636702580000547e-01 -2.209651673900000016e-02 4.139391768069999866e-01 9.669276383999999419e-03 5.827553841220000086e-01 -8.768803415000000004e-03 6.831942346699999835e-02 -8.480367966599999807e-02 -3.019529934590000075e-01 -3.119375590590000025e-01 -9.720764678899999900e-02 4.883282587669999786e-01 1.734953423020000052e-01 1.797443920679999974e-01 6.279332524630000245e-01 -3.729540213800000004e-01 3.439939846989999994e-01 4.524964406579999876e-01 -4.011359133440000058e-01 -2.238956610900000033e-01 -1.109851694720000032e-01 -1.581361528970000041e-01 -2.460157993419999911e-01 -1.738991979989999992e-01 -3.007907183960000230e-01 3.572922321879999918e-01 -3.373447314290000110e-01 -1.491695165600000032e-02 1.766265385000000132e-02 -1.872259798029999867e-01 1.564801019129999915e-01 -1.175655078870000009e-01 6.772913572700000051e-01 -1.670480668050000062e-01 -2.523619429430000172e-01 1.561496019860000029e-01 -1.761454510599999926e-02 -1.009255647889999996e-01 2.490390170929999980e-01 -4.443072144949999913e-01 -5.366107633619999762e-01 3.923395356500000014e-02 -4.867538359799999936e-02 -7.617144541299999960e-02 1.270631578900000003e-02 5.677860461999999740e-03 1.956933114899999868e-02 -6.129420526659999924e-01 -9.697410222960000103e-01 -1.499451758089999920e-01 -1.474919060630000001e-01 3.812361680019999977e-01 -3.478989245640000116e-01 3.882622892740000276e-01 1.299593810978999953e+00
-2.117141133980000034e-01 2.496172343100000121e-02 -2.925023014640000252e-01 -3.711210699599999663e-02 1.102671445339999945e-01 -4.507064963929999779e-01 4.082351981549999786e-01 1.436621952209999886e-01 -3.889375289199999974e-01 -3.360819840520000157e-01 9.771345231169999979e-01 -5.051033484750000468e-01 5.033321420799999890e-01 -8.249647974579999987e-01 3.519165046530000063e-01 -5.817190318820000261e-01 6.257377039900000049e-02 -4.974188223989999824e-01 7.388578857990000248e-01 3.707999174559999944e-01 3.678462549759999867e-01 -3.943194706929999960e-01 -5.419363020180000268e-01 7.782628461139999843e-01 -4.480420252730000219e-01 -1.643680526252000007e+00 8.767701160940000182e-01 -5.471044660360000478e-01 5.403108651139999496e-01 7.269795077299999464e-02 -5.499670791920000523e-01 6.776112292579999918e-01 1.832748455785000008e+00 6.700436212360000310e-01 3.370411946119999946e-01 -1.080631385521999999e+00 -5.488397156930000520e-01 -1.084967418020000018e-01 -4.418733989790000205e-01 6.559281339250000453e-01 9.301719602629999750e-01 -4.224221451749999856e-01 -6.329098157829999849e-01 7.825413167029999784e-01 -8.891433760870000036e-01 8.382541494680000316e-01 -1.534839265000000008e+00 8.073815721889999741e-01 -7.640500055090000409e-01 -3.967857153329999997e-01 8.881453028400000671e-02 4.930281498679999763e-01 -4.887450298530000015e-01 -2.472209008169999889e-01 7.586411112780000465e-01 -6.687634013309999848e-01 1.159937847719999943e-01 -6.334358789220000396e-01 -5.707717825120000033e-01 -9.714127827999999645e-03 1.371874255550999955e+00 -1.944766016860000057e-01 2.814931361529999787e-01 9.606348468299999444e-02 2.488739309190000082e-01 5.741223381209999976e-01 6.578772323449999515e-01 4.323445997450000022e-01 -2.124747596650000125e-01 -2.004404724800000134e-02 1.931872871380000134e-01 9.476785408500000563e-02 1.871602721310000050e-01 -5.150385535610000343e-01 -4.158775339440000107e-01 -5.230664985599999678e-02 1.499548624425000032e+00 3.469887229949999985e-01 -8.743612733899999712e-02 9.771671125749999964e-01 -4.725572414109999730e-01 2.231216034169999918e-01 -5.415046269390000333e-01 -5.369005254059999732e-01 3.881264983000000130e-03 2.708809512529999908e-01 -6.265674871000000146e-02 -9.442800053699999807e-02 1.263564246759000032e+00 -7.036423583659999759e-01 2.556527680560000126e-01 -1.366891652627999942e+00 2.110388108340000013e-01 -6.439036805519999795e-01 -9.127849643359999821e-01 5.682933361959999763e-01 -2.872620327599999940e-02 4.183448503719999767e-01 -5.929501171800000137e-01 -1.478835837330000069e-01 2.496714979619999997e-01 -1.533836818840000060e-01 8.401598281000000751e-03 -5.819918419100000156e-02 -2.496749943730000032e-01 -5.487791709529999951e-01 -2.796124362419999954e-01 7.799281871559999857e-01 -9.806218581900000286e-02 3.166179892189999734e-01 6.876951824039999606e-01 -2.363105878199999940e-02 -1.042684245692999889e+00 -1.230899817849999911e+00 -1.712728989500000021e-01 1.558029358430000066e-01 -1.842293339349999892e-01 -2.685835707820000140e-01 7.070959605140000326e-01 1.204161361199000080e+00
-2.604548160519999933e-01 6.515418809400000399e-02 -2.834430583909999801e-01 -3.166936412000000058e-03 1.852222292050000052e-01 -4.675037728420000094e-01 6.650425516110000101e-01 9.864071464399999656e-02 -3.371007839010000118e-01 -5.041155835720000367e-01 9.659797230659999956e-01 -5.697014374529999481e-01 2.002716578700000083e-01 -7.948422700930000140e-01 3.419747244390000107e-01 -3.226180597900000224e-01 1.796224430789999937e-01 -4.068112211089999763e-01 7.666627127870000447e-01 4.109663730950000038e-01 3.979420950759999798e-01 -5.075383572960000533e-01 -7.701310996110000140e-01 7.738654326460000510e-01 2.131871880320000134e-01 -9.484106308419999465e-01 2.336719629379999941e-01 -9.455363156570000260e-01 6.819943815100000528e-02 4.305318443500000258e-02 -3.413854986609999864e-01 3.690614329269999994e-01 6.615091483930000127e-01 3.870003901069999919e-01 5.779428368889999446e-01 -6.431634335100000488e-01 -2.270363094450000008e-01 3.882320978450000126e-01 1.267527569299999879e-01 4.727591358650000131e-01 7.617582070220000334e-01 -2.725849910659999820e-01 -7.166864956000000564e-02 1.925601584480000072e-01 4.062388798999999953e-03 2.261418827070000026e-01 -9.962742934120000227e-01 7.780619487669999668e-01 2.142313589500000059e-02 1.046052457840000033e-01 1.276241681170000031e-01 -3.928965344540000237e-01 -1.586480932609999894e-01 -1.299696725249999962e-01 -1.845172346179999867e-01 -4.008587893650000233e-01 1.364052991390000136e-01 2.914912649310000270e-01 -3.148113404339999977e-01 1.150698363059999979e-01 7.762117798040000238e-01 -3.936143752010000108e-01 -1.590912482769999969e-01 -2.299939572299999901e-01 2.845591357469999805e-01 2.885277796449999821e-01 3.610385650619999942e-01 2.110610221389999930e-01 -2.347883405410000068e-01 -1.417532048269999900e-01 2.333954177850000034e-01 9.438848298599999964e-02 3.558718717229999995e-01 2.195970122850000039e-01 -2.075632503550000063e-01 1.949963785000000116e-02 -7.676754457399999343e-02 2.731690481829999739e-01 -3.137247361359999931e-01 -5.030846536340000119e-01 -3.015434288030000021e-01 4.990558732099999867e-02 -2.355137707300000022e-02 -1.516277931860000039e-01 2.710998553880000217e-01 -3.243793002709999818e-01 -3.009690116699999946e-02 2.264900919199999973e-01 6.652607945890000041e-01 -6.000281444820000365e-01 1.190932235700000071e-02 -2.472812266240000112e-01 9.872766700799999462e-02 -7.102045652870000447e-01 -4.662681099300000076e-01 5.573215252109999795e-01 -3.981459240699999902e-02 -1.031044042639999991e-01 3.940460101089999778e-01 1.365440402260000019e-01 2.354677085870000020e-01 -6.687095557340000385e-01 3.765215270399999842e-02 -2.743505828980000172e-01 2.249621989230000119e-01 -2.576354692200000240e-01 -4.130313304950000153e-01 1.111446979057999940e+00 -3.540282053499999720e-02 4.942998082830000195e-01 -8.181843655899999346e-02 9.817279645199999960e-02 -6.846066932459999865e-01 -1.956168789140000086e-01 -1.576361521159999890e-01 4.253922905390000175e-01 -6.810652191839999814e-01 5.872417266300000022e-02 7.570378370279999825e-01 -3.603550691080000257e-01
-2.498236020229999965e-01 2.567438729639999750e-01 -2.764981968829999803e-01 -6.666466712700000463e-02 3.037309683330000065e-01 -4.083929196459999966e-01 1.072062670023000042e+00 -1.457773232239999994e-01 5.503364231200000289e-02 -7.518525832060000136e-01 8.825222445820000150e-01 -4.525028773479999877e-01 -1.664640221639999973e-01 -6.408499208169999850e-01 2.895559399289999725e-01 1.777430107499999856e-02 3.090325113929999756e-01 -2.723650759799999821e-01 7.783234960379999956e-01 2.550087905689999990e-01 1.333671368669999968e-01 -6.347842786030000184e-01 -8.445627554739999487e-01 5.546854714940000486e-01 4.584577250360000189e-01 -5.489718956499999719e-02 -5.409657046889999599e-01 -8.329919500569999968e-01 -2.636765962950000097e-01 -3.442336198490000276e-01 1.377595371110000022e-01 -3.970760095090000164e-01 -3.249108429040000190e-01 -1.465666345530000081e-01 5.093147705239999823e-01 -4.455768990849999778e-01 9.280312257400000209e-02 6.316365504890000260e-01 7.777412485489999527e-01 6.352439894999999982e-03 9.963645090099999824e-02 1.907311818659999936e-01 8.773787314000000004e-01 -1.569645051659999957e-01 8.065240043750000476e-01 -6.745688860530000275e-01 2.245025036000000002e-02 4.062416045850000268e-01 4.034347625770000056e-01 4.321206441189999747e-01 9.134424891600000096e-02 -6.065240530900000149e-01 1.352615347009999969e-01 5.455140367800000167e-02 -7.387130724260000392e-01 9.466437056099999414e-02 1.195052717700000044e-01 7.453143768400000146e-01 6.565613525300000031e-02 1.929834686119999976e-01 -3.681723273979999878e-01 -2.952610394330000276e-01 -5.965076189769999981e-01 -2.120471548079999879e-01 2.411866789069999906e-01 -1.835998085960000026e-01 -7.576746184939999740e-01 -1.823730485570000115e-01 -8.223163637600000575e-02 2.177202828420000125e-01 1.506889196710000101e-01 8.585313124599999735e-02 3.448921442219999856e-01 6.490814742939999826e-01 1.090047615719999946e-01 5.436420248099999714e-02 -1.481641119574000021e+00 -4.833006853599999819e-02 -4.308164204289999799e-01 -1.209208979265000039e+00 -1.343477084400000049e-02 -1.802322704590000046e-01 3.041631207980000084e-01 3.864861519839999926e-01 5.576343280809999969e-01 -8.822826378910000322e-01 -2.117977244000000120e-02 5.381969876050000101e-01 -8.726546552809999469e-01 -8.023503667799999906e-02 -2.296131552210000093e-01 1.367149365384999982e+00 -1.747730835469999966e-01 -3.866290764220000065e-01 7.401180821770000362e-01 1.549612897379999965e-01 -4.821970482400000230e-02 -7.182320269230000331e-01 9.162378231609999979e-01 4.886905324329999800e-01 4.383587520800000248e-02 -7.006886216419999647e-01 4.099279564600000203e-02 -4.786056394429999972e-01 2.559152669800000002e-01 2.025519578209999949e-01 -3.672943345140000093e-01 2.572405776539999911e-01 5.045408455400000186e-02 4.305230781589999833e-01 -6.971319177060000261e-01 1.087718140580000020e-01 2.368096605829999868e-01 1.065778394509000027e+00 -1.232770468250000001e-01 4.453367335899999779e-01 -5.322868925529999906e-01 4.117052318700000213e-01 3.846856974089999937e-01 -7.078966555179999620e-01
-2.622860615320000144e-01 2.682470070149999830e-01 -2.039250859529999904e-01 -1.335019473179999971e-01 2.914551460770000157e-01 -2.619766215780000018e-01 1.257888430321999929e+00 -2.306468878229999964e-01 5.972884509520000051e-01 -7.988975755530000056e-01 8.856405940560000412e-01 -1.909848924160000017e-01 -4.632259527309999791e-01 -5.775853149370000494e-01 2.118796543339999949e-01 3.301918931269999802e-01 2.648505599209999839e-01 -2.026256418540000048e-01 6.772411291359999863e-01 1.802509694880000124e-01 -1.987249514880000123e-01 -5.610949949279999682e-01 -6.306138932720000145e-01 2.292913928239999899e-01 1.448378356410000012e-01 6.003445182129999447e-01 -6.404019415599999654e-01 -1.406136010679999993e-01 -6.690992837789999648e-01 -1.700777282329999918e-01 4.567432335470000271e-01 -1.031577458227000088e+00 -6.211146646340000022e-01 -6.161681631669999604e-01 4.587586943870000100e-01 1.239681096659999981e-01 3.843622764379999723e-01 9.461231589900000183e-02 5.902410452220000492e-01 -5.281207410920000234e-01 -9.100366278960000388e-01 1.606702797369999880e-01 1.046922125248000102e+00 3.390758704260000145e-01 8.248614693879999793e-01 -9.768386926800000092e-01 7.837044407730000550e-01 -5.046051976969999631e-01 -5.427547327289999890e-01 4.249662127950000201e-01 4.283879733999999828e-02 6.700351387780000278e-01 2.227897164829999999e-01 1.624870279299999998e-01 1.323676198979999996e-01 6.268021813090000061e-01 -1.497280778199999995e-01 -8.400428980700000436e-02 3.405762913770000178e-01 7.049352345600000402e-02 -8.813314008789999709e-01 -4.729676099999999750e-04 -7.782263316869999503e-01 -3.766332498509999960e-01 2.046143867009999895e-01 -4.767500541119999991e-01 -7.986468748489999880e-01 -5.745767084559999516e-01 1.742430525470000102e-01 1.395598476600000068e-02 4.778654497499999765e-02 6.994134945200000675e-02 2.444203431349999955e-01 -7.134368297700000028e-02 2.112548591339999948e-01 2.569315368699999838e-02 -6.922935660540000535e-01 -5.346457588790000104e-01 -4.133859617899999783e-01 -2.895312735739999921e-01 2.351524649969999881e-01 -4.382345122819999994e-01 -7.048936738890000386e-01 6.356454215819999920e-01 7.901703334880000318e-01 -6.683286919399999970e-02 1.630189973900000172e-02 5.242072034429999805e-01 -8.005305231210000372e-01 6.239876759700000441e-01 -3.785435670060000035e-01 1.216509382057000099e+00 -1.853526828129999915e-01 -6.405798890800000478e-02 1.081077254855999925e+00 -2.553472661849999770e-01 1.407634104000000073e-02 -1.002893599345999975e+00 -2.334246561009999943e-01 6.763587920610000248e-01 -2.376184351310000054e-01 1.274254839070000089e-01 6.434664929399999678e-02 -6.580326824440000388e-01 9.667720246800000361e-02 5.559324677760000277e-01 -1.713162263319999989e-01 -9.373988606240000188e-01 1.597490674419999868e-01 2.190877471069999916e-01 2.380119035069999944e-01 -6.351628444599999312e-02 8.301293702719999557e-01 9.977415897820000046e-01 -6.082345674100000238e-02 2.313746191799999907e-01 1.464667211719999917e-01 4.131800310879999993e-01 -2.927581493060000262e-01 -4.155896147299999871e-02