1.185589592341563803e+00 -1.629914012048684635e-02 -8.538710910438129797e-02 -1.629914012048684635e-02 1.198296147326986416e+00 -1.595421186150752227e-03 -8.538710910438129797e-02 -1.595421186150752227e-03 9.596038414512632064e-01
3.002656071235886071e+00 -6.025630013722580586e-02 -5.155038183773049676e-01 -6.025630013722580586e-02 3.225553588780446290e+00 -1.855593653953166097e-02 -5.155038183773049676e-01 -1.855593653953166097e-02 2.780464544318077991e+00
3.114672006846879615e+00 4.292490884879741897e-03 -6.390751190747503419e-01 4.292490884879741897e-03 3.235504140802525352e+00 -1.265328657679989643e-01 -6.390751190747503419e-01 -1.265328657679989643e-01 2.626853298505524847e+00
2.405011380286749212e+00 8.934356528477550852e-02 -3.387087514091384755e-01 8.934356528477550852e-02 3.004782374767882569e+00 -2.208973845604783048e-01 -3.387087514091384755e-01 -2.208973845604783048e-01 6.534082498092070868e-01
2.185999019815853650e+00 2.634184289255825928e-01 7.402187736182692934e-02 2.634184289255825928e-01 2.973095723807424040e+00 -1.359967144012347307e-01 7.402187736182692934e-02 -1.359967144012347307e-01 5.451060661506878374e-02
1.772707070862712397e+00 6.954753440345998738e-01 2.461785839673487908e-01 6.954753440345998738e-01 3.842839589903577657e+00 -1.557768719604523677e-01 2.461785839673487908e-01 -1.557768719604523677e-01 -1.458649549769637677e+00
-1.035626279119852722e+00 1.055889293245820149e+00 1.783942494037103477e-01 1.055889293245820149e+00 6.225964434000668124e-01 -1.743835914416216604e-01 1.783942494037103477e-01 -1.743835914416216604e-01 -5.856472005621576216e+00
-3.561830619554192889e+00 1.212619001418780540e+00 2.365296283740214445e-01 1.212619001418780540e+00 -1.989579380261947694e+00 1.444312477454861854e-01 2.365296283740214445e-01 1.444312477454861854e-01 -9.120813090758456809e+00
-5.968045422225004337e+00 1.209723612274452575e+00 5.508310853720612688e-01 1.209723612274452575e+00 -5.335841172962496159e+00 4.549401581316264154e-01 5.508310853720612688e-01 4.549401581316264154e-01 -1.150825711048606159e+01
-8.033833487636607984e+00 1.089081099675406339e+00 5.910725689936294769e-01 1.089081099675406339e+00 -5.597706444402753334e+00 5.941174238221533926e-02 5.910725689936294769e-01 5.941174238221533926e-02 -1.214243006622879939e+01
-9.045241936773335212e+00 1.300677601230390001e+00 3.898846202049113252e-01 1.300677601230390001e+00 -2.079134217676076535e+00 -3.506008205027316693e-01 3.898846202049113252e-01 -3.506008205027316693e-01 -1.247569826337356780e+01
-7.622432459083211320e+00 1.639696346906200253e+00 4.782629943368045811e-01 1.639696346906200253e+00 2.571811273979441204e+00 -2.080561529763915174e-01 4.782629943368045811e-01 -2.080561529763915174e-01 -1.122347815409995064e+01
-6.233190552327891432e+00 1.372347940382105502e+00 8.368422427564753407e-01 1.372347940382105502e+00 3.346108580522228593e+00 -5.485486915703866040e-02 8.368422427564753407e-01 -5.485486915703866040e-02 -9.944131393133236685e+00
-1.554049763334891754e+00 7.378534348258674047e-01 1.279016795260405681e+00 7.378534348258674047e-01 7.379917920191673142e-01 -5.048431784179336912e-01 1.279016795260405681e+00 -5.048431784179336912e-01 -6.834689764877590612e+00
1.462538256434522399e+00 1.421787200325121681e-01 1.090871043619305647e+00 1.421787200325121681e-01 2.991667243273655075e+00 -1.477460997894785910e+00 1.090871043619305647e+00 -1.477460997894785910e+00 -1.937180891062825649e+00
3.975060430674084877e+00 4.971516449407142879e-01 6.209931464628766218e-01 4.971516449407142879e-01 8.683868861518659443e+00 -2.360524696392463539e+00 6.209931464628766218e-01 -2.360524696392463539e+00 3.319423750417628050e+00
6.379123426494468951e+00 9.917402104299437582e-01 8.291117080877224987e-01 9.917402104299437582e-01 1.207658385585146377e+01 -2.825991031981830659e+00 8.291117080877224987e-01 -2.825991031981830659e+00 7.451800910474998041e+00
5.058799781305670429e+00 9.823657196920190238e-01 1.203469451115985134e+00 9.823657196920190238e-01 8.021343513665188496e+00 -3.063687142024623000e+00 1.203469451115985134e+00 -3.063687142024623000e+00 7.449147759307876093e+00
2.710038480088964530e+00 9.972658531105281499e-02 1.264617601083774856e+00 9.972658531105281499e-02 4.033761846659359662e+00 -2.623797300202658445e+00 1.264617601083774856e+00 -2.623797300202658445e+00 7.247852058778640583e+00
2.434040599175705921e+00 -1.153689342611202262e+00 1.135217154531312111e+00 -1.153689342611202262e+00 1.047373427079808517e+00 -1.463177268294223010e+00 1.135217154531312111e+00 -1.463177268294223010e+00 3.582341942244100075e+00
2.052797185294550353e+00 -2.284490963824073795e+00 8.632171013043902219e-01 -2.284490963824073795e+00 -1.257724627424442021e+00 -3.459020660521729962e-01 8.632171013043902219e-01 -3.459020660521729962e-01 -2.493812503755889198e-01
-2.179282715497631973e+00 -2.039880452537302880e+00 9.710468428191469936e-01 -2.039880452537302880e+00 -1.263799935531994434e+00 4.838965681570799870e-01 9.710468428191469936e-01 4.838965681570799870e-01 -4.022603641796387741e+00
-5.859961596872701683e+00 -3.978345098261258372e-01 1.694377297596900700e+00 -3.978345098261258372e-01 -2.525243924187496436e+00 1.370012007252506825e+00 1.694377297596900700e+00 1.370012007252506825e+00 -7.634781347776079308e+00
-5.304052109794070269e+00 1.326870283651859106e+00 2.477393308695335250e+00 1.326870283651859106e+00 -3.132473434276589863e+00 1.271766228341392191e+00 2.477393308695335250e+00 1.271766228341392191e+00 -9.601222185402450648e+00
-4.408205600708574146e+00 1.684082968996957197e+00 2.648252540603557303e+00 1.684082968996957197e+00 -6.977931995494801587e-01 1.182716681222658606e+00 2.648252540603557303e+00 1.182716681222658606e+00 -1.126058319177946565e+01
-3.872185761722963360e+00 1.725579947346443377e-01 9.987175992365839861e-01 1.725579947346443377e-01 -6.022069943635604439e+00 1.883262971857828871e+00 9.987175992365839861e-01 1.883262971857828871e+00 -1.199268971040013376e+01
-8.720319846828033405e+00 1.215555799667957793e+00 2.991223664213255584e-01 1.215555799667957793e+00 -1.314390523695729485e+01 2.192490774741538306e+00 2.991223664213255584e-01 2.192490774741538306e+00 -1.088918213520841149e+01
-1.319561472322099682e+01 1.512539816768524226e+00 4.204074749579546078e-01 1.512539816768524226e+00 -1.343001413060278715e+01 1.568483787315007261e+00 4.204074749579546078e-01 1.568483787315007261e+00 -8.044676362534461944e+00
-1.420910693303443573e+01 1.090829681689520658e+00 7.907425894847993630e-01 1.090829681689520658e+00 -6.963216260869373286e+00 8.309843644671159879e-01 7.907425894847993630e-01 8.309843644671159879e-01 -5.156558598621725054e+00
-1.405693074303547974e+01 2.290747988389288281e+00 7.968841886670812169e-01 2.290747988389288281e+00 -2.661878357838700193e+00 3.507222412468536943e-01 7.968841886670812169e-01 3.507222412468536943e-01 -4.724553473776329504e+00
-1.103940310940320124e+01 2.629232775163554692e+00 3.216840989081620750e-01 2.629232775163554692e+00 -5.046247765368624627e+00 -4.396595332004137324e-01 3.216840989081620750e-01 -4.396595332004137324e-01 -7.666985294342057777e+00
-7.109467986118620964e+00 1.061285053394721567e+00 6.325675977373691472e-01 1.061285053394721567e+00 -6.429087001950721358e+00 -1.472244398181129510e-01 6.325675977373691472e-01 -1.472244398181129510e-01 -6.793941414805483525e+00
-4.091281932324620563e+00 -2.386226577454267361e-01 5.298170685939118663e-01 -2.386226577454267361e-01 -1.734770514945730646e+00 2.268310553896812631e-01 5.298170685939118663e-01 2.268310553896812631e-01 -3.649026240334822369e+00
4.982537582648323138e-01 -5.150114634320823725e-01 -3.639125421218997181e-01 -5.150114634320823725e-01 3.688723267118749316e+00 3.235456580671305371e-01 -3.639125421218997181e-01 3.235456580671305371e-01 1.142052577316783113e+00
6.156805129854040715e+00 -3.184099062715846085e-01 -1.013900313714255264e+00 -3.184099062715846085e-01 5.166146353363822108e+00 1.249787312572343989e+00 -1.013900313714255264e+00 1.249787312572343989e+00 2.370253278149955456e+00
7.112910059367253623e+00 6.159958782976052705e-01 -5.376996310640566046e-01 6.159958782976052705e-01 5.060869243693882247e+00 1.602304312171752176e+00 -5.376996310640566046e-01 1.602304312171752176e+00 1.309005826029502995e+00
8.916854737215997417e+00 1.083478522212047990e+00 7.098925446121580052e-01 1.083478522212047990e+00 4.651869346558859419e+00 1.547290285347797445e+00 7.098925446121580052e-01 1.547290285347797445e+00 1.792356843584249182e+00
8.345429615227997644e+00 3.431148830429057162e-01 2.086046486869526539e+00 3.431148830429057162e-01 6.343297654521625084e+00 1.292804700686085662e+00 2.086046486869526539e+00 1.292804700686085662e+00 5.131719509117823819e+00
7.936027782686770671e+00 -3.964965537231529558e-01 2.676844280829359768e+00 -3.964965537231529558e-01 8.490765325303216926e+00 7.718646988240780438e-01 2.676844280829359768e+00 7.718646988240780438e-01 7.078630547090257075e+00
5.150010745043842597e+00 -1.516046011346589284e-01 2.344703774511568639e+00 -1.516046011346589284e-01 7.531453703694588775e+00 6.999985346673274211e-01 2.344703774511568639e+00 6.999985346673274211e-01 3.796606241297854734e+00
6.024384852555683123e-01 -3.411426515237713786e-01 1.885561365447668170e+00 -3.411426515237713786e-01 3.692389622427842077e+00 8.423255976201183826e-01 1.885561365447668170e+00 8.423255976201183826e-01 -1.943780075903410065e+00
-1.375589142504726636e+00 -5.103799348480604348e-01 1.194767867443348397e+00 -5.103799348480604348e-01 -1.570050489102311930e+00 1.027285476814916665e+00 1.194767867443348397e+00 1.027285476814916665e+00 -7.508669916374356212e+00
-4.103613490152235421e+00 -8.744949212080299628e-01 6.172149051476256698e-01 -8.744949212080299628e-01 -5.800475669901055120e+00 1.246242166644577098e+00 6.172149051476256698e-01 1.246242166644577098e+00 -9.326590320196464390e+00
-7.168173962074208205e+00 -1.272976942860206240e+00 4.568088250489977242e-01 -1.272976942860206240e+00 -7.362830647722989674e+00 1.356408335614118998e+00 4.568088250489977242e-01 1.356408335614118998e+00 -8.923027649859996302e+00
-9.449354197153837731e+00 -1.192684277130490855e+00 4.727834119052832240e-01 -1.192684277130490855e+00 -8.125151662091870008e+00 1.429051716419601492e+00 4.727834119052832240e-01 1.429051716419601492e+00 -9.524707171936348971e+00
-1.016032027626822476e+01 -8.952448525832772397e-01 4.311041362636026664e-01 -8.952448525832772397e-01 -8.679536284305150673e+00 1.225332219568531666e+00 4.311041362636026664e-01 1.225332219568531666e+00 -1.145075945708987319e+01
-8.708278065545162150e+00 -7.831450536485600189e-01 1.378154325562417626e-01 -7.831450536485600189e-01 -7.611904905176048786e+00 7.232991150585782458e-01 1.378154325562417626e-01 7.232991150585782458e-01 -1.222553375960029420e+01
-5.358708028172551430e+00 -5.319285514012771499e-01 -5.637308875353429921e-02 -5.319285514012771499e-01 -4.609212624553917337e+00 5.967970166760842021e-01 -5.637308875353429921e-02 5.967970166760842021e-01 -9.227165478949469701e+00
-1.736537942092721831e+00 1.368563289990929466e-01 -1.504254208465162779e-01 1.368563289990929466e-01 -6.851908223203625470e-01 5.781538208779525290e-01 -1.504254208465162779e-01 5.781538208779525290e-01 -4.479446243463005572e+00
1.830600762378456592e+00 7.104033791448104429e-01 -9.221032567660396306e-02 7.104033791448104429e-01 3.914301007230229779e+00 2.750753434217323434e-01 -9.221032567660396306e-02 2.750753434217323434e-01 -3.607044251692432396e-02
5.851570522641441841e+00 1.120823868311839000e+00 -8.502809994287624518e-02 1.120823868311839000e+00 7.809675272279353209e+00 1.437680438057775956e-01 -8.502809994287624518e-02 1.437680438057775956e-01 2.029080968575635691e+00
9.759212301559365699e+00 1.494130208441445173e+00 -1.644349561855886210e-01 1.494130208441445173e+00 1.045522571076693730e+01 -3.356861792297398395e-02 -1.644349561855886210e-01 -3.356861792297398395e-02 3.075642661576389880e+00
1.235755473319341924e+01 1.797227324314441210e+00 1.366916234288110543e-01 1.797227324314441210e+00 1.124828023835828184e+01 -2.278945163362615933e-01 1.366916234288110543e-01 -2.278945163362615933e-01 4.596011220213546800e+00
1.233762820402889737e+01 1.952863047609057601e+00 6.736623596751428744e-01 1.952863047609057601e+00 1.013942924262373069e+01 -2.971468172791422169e-01 6.736623596751428744e-01 -2.971468172791422169e-01 6.017185097432743213e+00
1.061094740355166444e+01 1.463435544092695162e+00 8.134279194805831281e-01 1.463435544092695162e+00 7.171189563730540506e+00 -4.023805959751277639e-01 8.134279194805831281e-01 -4.023805959751277639e-01 4.164237626321580343e+00
6.448528560944922106e+00 5.624118871935535058e-01 6.355363611445832284e-01 5.624118871935535058e-01 3.002113621928700571e+00 -1.278713242717930409e-01 6.355363611445832284e-01 -1.278713242717930409e-01 8.075304764698421067e-01
2.337695158443273247e+00 7.123121870536525298e-03 3.225487926817649509e-01 7.123121870536525298e-03 -1.540869415860751879e+00 1.001679290627691676e-01 3.225487926817649509e-01 1.001679290627691676e-01 -3.787691728504333000e+00
-1.353527697554490983e+00 -1.746664255026270374e-01 2.359572299373574600e-02 -1.746664255026270374e-01 -4.930320433730493335e+00 1.411004771633321553e-01 2.359572299373574600e-02 1.411004771633321553e-01 -8.426815258157434485e+00
-4.732191250139004879e+00 -7.004858227188011377e-02 -2.838145130227860413e-01 -7.004858227188011377e-02 -6.062503848825946839e+00 2.082619101040245890e-01 -2.838145130227860413e-01 2.082619101040245890e-01 -1.068083609966103964e+01
-5.820163494785898450e+00 -2.127850867904544085e-01 -4.015227780929367385e-01 -2.127850867904544085e-01 -6.818059003769647575e+00 3.109295005680153268e-01 -4.015227780929367385e-01 3.109295005680153268e-01 -1.058718878498681271e+01
-5.962099980388191334e+00 -1.021400344083462919e+00 -3.284637926525790785e-01 -1.021400344083462919e+00 -7.742806535987708294e+00 4.228464654949080637e-01 -3.284637926525790785e-01 4.228464654949080637e-01 -9.804365992106518490e+00
-4.985440050297524905e+00 -1.851645919220003433e+00 -1.314196321685642543e-01 -1.851645919220003433e+00 -6.740568914543552559e+00 4.929361043592898062e-01 -1.314196321685642543e-01 4.929361043592898062e-01 -9.945607418533757738e+00
-2.319927216766195954e+00 -2.324649785941688140e+00 1.316964340123041588e-01 -2.324649785941688140e+00 -6.019346247981496312e+00 3.059757069776937732e-01 1.316964340123041588e-01 3.059757069776937732e-01 -8.404954869141905149e+00
1.973996594260583493e+00 -2.170421400087783503e+00 4.269781973377454465e-01 -2.170421400087783503e+00 -5.704129050713545368e+00 5.395206363425761875e-01 4.269781973377454465e-01 5.395206363425761875e-01 -6.168153445824452241e+00
4.240005570780499333e+00 -1.613556765345909083e+00 3.797059834691377533e-01 -1.613556765345909083e+00 -2.024726119297173721e+00 8.693070290435227498e-01 3.797059834691377533e-01 8.693070290435227498e-01 -4.152738757227204758e+00
4.287239149037629815e+00 -1.402746253157246326e+00 -1.565082388050785880e-02 -1.402746253157246326e+00 4.259421942615022161e+00 8.383112213310783822e-01 -1.565082388050785880e-02 8.383112213310783822e-01 -4.782254048095539112e+00
3.566729990798077399e+00 -7.617934152248824198e-01 -3.910524702360861776e-02 -7.617934152248824198e-01 1.020412677274857494e+01 1.073796074338462025e+00 -3.910524702360861776e-02 1.073796074338462025e+00 -4.299965968001500549e+00
3.775687376547592677e+00 3.617904018865304994e-01 8.477993137185660388e-02 3.617904018865304994e-01 1.031777059653537876e+01 6.362634474853120503e-01 8.477993137185660388e-02 6.362634474853120503e-01 -3.948866423575387419e+00
4.128976112107475060e+00 6.198144178194803233e-01 -1.776241227734947081e-01 6.198144178194803233e-01 5.077335685162563728e+00 9.397979683516487215e-02 -1.776241227734947081e-01 9.397979683516487215e-02 -3.436186005468443661e+00
-3.497286942788351283e-01 2.785081909128465094e-01 -4.489377999189194668e-01 2.785081909128465094e-01 1.921200646250607047e+00 -6.129760809956241729e-02 -4.489377999189194668e-01 -6.129760809956241729e-02 -5.589085003808839103e-01
-1.042661339363621931e+00 3.472736462802405999e-01 -7.606434147734669748e-01 3.472736462802405999e-01 2.517110339961826870e+00 6.118159955795305915e-01 -7.606434147734669748e-01 6.118159955795305915e-01 4.261324194327891668e+00
-1.802384185051875587e+00 1.088127924966652671e+00 -1.133001686596720958e+00 1.088127924966652671e+00 -3.042484307094569518e-01 3.795405366684702075e-01 -1.133001686596720958e+00 3.795405366684702075e-01 3.531254702440161264e+00
-2.862168249380922513e-01 8.670419004123424145e-01 -1.113278829860673280e+00 8.670419004123424145e-01 -2.999956374367774625e+00 -3.149225618198219223e-01 -1.113278829860673280e+00 -3.149225618198219223e-01 -1.912103702516892101e+00
7.799111944878460712e-01 -9.599696842027256871e-02 -2.016322921142289282e+00 -9.599696842027256871e-02 -4.632111340392013332e-01 9.324938569851641545e-02 -2.016322921142289282e+00 9.324938569851641545e-02 -6.352362093118677500e+00
2.294412794468584593e+00 -6.171197386474284174e-01 -2.776803203955870991e+00 -6.171197386474284174e-01 2.559387026385887776e+00 5.272584842769740821e-01 -2.776803203955870991e+00 5.272584842769740821e-01 -5.729177645280675080e+00
2.076360439887696141e-01 -4.021508895518882687e-01 -2.307861514847143081e+00 -4.021508895518882687e-01 -1.107942016131542307e+00 4.849397723682175587e-01 -2.307861514847143081e+00 4.849397723682175587e-01 -3.540352363516752199e+00
-4.299704859996729134e+00 8.406461251998208484e-01 -1.906899013627318729e+00 8.406461251998208484e-01 -8.310487067605192735e+00 6.931726143150059860e-01 -1.906899013627318729e+00 6.931726143150059860e-01 -5.783600753181677767e+00
-7.916719696762887892e+00 9.950739565644642348e-02 -2.130794455169723989e+00 9.950739565644642348e-02 -1.354788957527718907e+01 7.336382807927791516e-01 -2.130794455169723989e+00 7.336382807927791516e-01 -1.403249284369344707e+01
-1.015227636960463187e+01 -1.001287308734917669e+00 -1.122845088031179994e+00 -1.001287308734917669e+00 -1.153594694755648575e+01 6.762811537653077298e-01 -1.122845088031179994e+00 6.762811537653077298e-01 -1.976037153444427474e+01
-1.072471385837134505e+01 -6.762343402168069506e-01 5.886965263766774648e-01 -6.762343402168069506e-01 -9.990463883739304052e+00 -1.170233896231698684e-01 5.886965263766774648e-01 -1.170233896231698684e-01 -1.828343900806193645e+01
-9.962784653846272320e+00 4.965263676189379805e-01 4.798068210270466372e-01 4.965263676189379805e-01 -6.483563749424924083e+00 -2.329210061864438013e-03 4.798068210270466372e-01 -2.329210061864438013e-03 -9.308464056747304483e+00
-4.202410728711267751e+00 9.078605535241311975e-01 -9.321875854963338273e-04 9.078605535241311975e-01 -3.421184136443403911e+00 -4.720437473078116786e-01 -9.321875854963338273e-04 -4.720437473078116786e-01 -1.303571079043515546e+00
-4.741026150087707336e+00 1.116874284751754098e+00 -2.346908971462490223e-01 1.116874284751754098e+00 -2.981467851290777737e+00 -7.078689313577156694e-01 -2.346908971462490223e-01 -7.078689313577156694e-01 -6.170908248469497259e+00
-1.951401143787189651e+00 1.599133745709177878e+00 -1.491700036519321045e-02 1.599133745709177878e+00 -1.531682556025668829e+00 5.815429959089570694e-02 -1.491700036519321045e-02 5.815429959089570694e-02 -6.024523144393392649e+00
1.035368936216819469e+00 1.208350161197332850e+00 3.975316603947168792e-01 1.208350161197332850e+00 4.888071898109131119e+00 -8.772252051672729811e-03 3.975316603947168792e-01 -8.772252051672729811e-03 2.808408331838732619e-01
8.815245728442954842e+00 7.108037021786466347e-01 6.631966903739544561e-01 7.108037021786466347e-01 9.944353736407931521e+00 -3.547896882512621142e-01 6.631966903739544561e-01 -3.547896882512621142e-01 6.727376238439576106e+00
7.787982132689336368e+00 4.936538520934181107e-01 7.134145698779448264e-01 4.936538520934181107e-01 8.763328249115700075e+00 6.060611414669648811e-01 7.134145698779448264e-01 6.060611414669648811e-01 5.675427968694934044e+00
4.423603323328404002e+00 2.060119062274826801e-02 1.275474431819246246e-01 2.060119062274826801e-02 8.949876376625198304e+00 7.866100449494016766e-01 1.275474431819246246e-01 7.866100449494016766e-01 5.225164745500824992e+00
1.865835196797024587e+00 2.748308424095244340e-01 -9.029417421362482266e-01 2.748308424095244340e-01 6.579753289449544518e+00 8.673921474277863641e-01 -9.029417421362482266e-01 8.673921474277863641e-01 1.875779241367348860e+00
3.742589863754084978e-01 1.026291698209591319e+00 -1.232244905401411517e+00 1.026291698209591319e+00 5.592400466019495475e+00 1.137659520141252711e+00 -1.232244905401411517e+00 1.137659520141252711e+00 2.380781180309028411e+00
-1.474235787534182718e+00 1.406204041726041076e+00 -1.193147155553513139e+00 1.406204041726041076e+00 1.162983143143474285e+00 7.115793683291793403e-01 -1.193147155553513139e+00 7.115793683291793403e-01 2.675623766710806262e+00
-4.054910788967720947e+00 1.584342176149498016e+00 -7.280945372752846145e-01 1.584342176149498016e+00 -2.863894601199965528e+00 4.768717027138527631e-01 -7.280945372752846145e-01 4.768717027138527631e-01 -2.792616068894416603e+00
-5.966157114203766376e+00 1.642008743321683895e+00 -3.963761351606662764e-01 1.642008743321683895e+00 -7.923846359911731696e+00 8.344672936772291605e-01 -3.963761351606662764e-01 8.344672936772291605e-01 -1.013927371196224492e+01
-7.584754310318090553e+00 1.144142485162238820e+00 -5.368030357374192763e-01 1.144142485162238820e+00 -8.915608530647538998e+00 7.175237692032245818e-01 -5.368030357374192763e-01 7.175237692032245818e-01 -1.225815486367289076e+01
-4.880673590213128854e+00 7.758271549083091134e-01 -9.555754217975054310e-01 7.758271549083091134e-01 -6.539257012738155517e+00 2.292547466585302673e-01 -9.555754217975054310e-01 2.292547466585302673e-01 -1.014208292340414275e+01
-2.137129165992602609e+00 1.122448312133325965e+00 -9.108637186251364870e-01 1.122448312133325965e+00 -4.196941157764194408e+00 3.433134862229177131e-02 -9.108637186251364870e-01 3.433134862229177131e-02 -7.368938702031559984e+00
-4.977929671725481175e-01 1.358248428062583057e+00 -3.174296624102470599e-01 1.358248428062583057e+00 -1.759648019172454392e+00 2.319074892460790405e-01 -3.174296624102470599e-01 2.319074892460790405e-01 -6.913099328265771781e+00
-9.942578198985205784e-01 1.346577359271841301e+00 1.329144214467709306e-01 1.346577359271841301e+00 -1.591374940685533090e+00 7.307181290945702345e-02 1.329144214467709306e-01 7.307181290945702345e-02 -6.289920268152935812e+00
-1.272226444816370483e+00 1.349754790881312116e+00 2.097660847975974518e-01 1.349754790881312116e+00 -1.794145268230885049e-01 -1.918003792548262365e-01 2.097660847975974518e-01 -1.918003792548262365e-01 -3.905011371458565250e+00
9.533413702908083431e-01 9.596141328646449198e-01 2.167650339664028147e-01 9.596141328646449198e-01 1.485488016741006057e+00 -1.167761286230756257e-01 2.167650339664028147e-01 -1.167761286230756257e-01 -1.576893033751782802e+00
3.516201473655289345e+00 2.091520854511802752e-01 4.771982445573791920e-01 2.091520854511802752e-01 3.627971656034651549e+00 -2.227165555937429819e-01 4.771982445573791920e-01 -2.227165555937429819e-01 2.459062974862042950e+00
5.772303800692024645e+00 -7.407915340984504160e-02 4.219908968729300658e-01 -7.407915340984504160e-02 4.552003248717534589e+00 -2.099537064756186455e-01 4.219908968729300658e-01 -2.099537064756186455e-01 4.104775002083360214e+00
5.870111790232358295e+00 -1.403064823356740543e-01 3.029412215411713891e-02 -1.403064823356740543e-01 5.761145858392912267e+00 1.712633289965492245e-01 3.029412215411713891e-02 1.712633289965492245e-01 4.652026213183170000e+00
6.271259003926219933e+00 -3.164582744475537002e-01 -6.699167729807674332e-02 -3.164582744475537002e-01 5.546899930609895613e+00 3.901610716692605618e-01 -6.699167729807674332e-02 3.901610716692605618e-01 5.197925703740409631e+00
4.956082603505065798e+00 -1.838470293201368289e-01 -1.536113250689814802e-01 -1.838470293201368289e-01 4.277813118867003439e+00 4.623003172297418528e-01 -1.536113250689814802e-01 4.623003172297418528e-01 4.469126137122413134e+00
3.417903883729483727e+00 -4.739220548669575289e-02 1.998105960216928125e-03 -4.739220548669575289e-02 2.599643334060805611e+00 4.011157564666905651e-01 1.998105960216928125e-03 4.011157564666905651e-01 1.242895802927371340e+00
1.564404365844467959e+00 1.354430389093214029e-03 7.181211055750111871e-01 1.354430389093214029e-03 7.094721467588440689e-01 2.268695304114724254e-01 7.181211055750111871e-01 2.268695304114724254e-01 -2.723860061273345679e+00
-9.652130126710367630e-01 3.288421964961718569e-01 1.003383725652537084e+00 3.288421964961718569e-01 -1.134095525307335928e+00 -1.276067017051106187e-02 1.003383725652537084e+00 -1.276067017051106187e-02 -5.669092649762952796e+00
-4.119682324595886236e+00 4.479860979026880075e-01 9.777614998059617202e-01 4.479860979026880075e-01 -4.061809244795753671e+00 -1.347884382976207995e-01 9.777614998059617202e-01 -1.347884382976207995e-01 -8.253081884357237996e+00
-6.208858990227015262e+00 6.017724573149215717e-01 1.225458390907887996e+00 6.017724573149215717e-01 -5.822062738689028016e+00 1.039748378816772179e-01 1.225458390907887996e+00 1.039748378816772179e-01 -1.023584462592132382e+01
-5.716488614584176453e+00 1.414975291329214402e+00 1.147492870412551769e+00 1.414975291329214402e+00 -6.778778744273152412e+00 4.046901370933000952e-01 1.147492870412551769e+00 4.046901370933000952e-01 -1.067923958088881520e+01
-5.516994237272243140e+00 2.143951156884125187e+00 5.169751260269463966e-01 2.143951156884125187e+00 -5.845771202850515991e+00 6.607788851450382417e-01 5.169751260269463966e-01 6.607788851450382417e-01 -9.717195522441789635e+00
-3.644900436471916638e+00 1.918222596175027217e+00 -2.593628508001337152e-01 1.918222596175027217e+00 -4.182156847984816572e+00 6.797196077284105575e-01 -2.593628508001337152e-01 6.797196077284105575e-01 -7.790498331557517808e+00
-1.512770055885823028e+00 1.379237951983422805e+00 -6.857650002004616052e-01 1.379237951983422805e+00 -2.803441650762565462e+00 6.261844964263252322e-01 -6.857650002004616052e-01 6.261844964263252322e-01 -6.137253784316373029e+00
1.860544941518708084e+00 1.290966829548263917e+00 -7.486986424389059369e-01 1.290966829548263917e+00 -1.280770706472437404e+00 8.768604351888990012e-01 -7.486986424389059369e-01 8.768604351888990012e-01 -4.595902228725316618e+00
3.852171576229229455e+00 1.186798753589794586e+00 -7.144360799571326526e-01 1.186798753589794586e+00 -1.070274552553838604e-01 1.032792207098297776e+00 -7.144360799571326526e-01 1.032792207098297776e+00 -4.023728506631309543e+00
5.098648990305155060e+00 8.470072676038611359e-01 -1.146165520999323117e+00 8.470072676038611359e-01 4.013237621386474885e+00 7.523153937252584633e-01 -1.146165520999323117e+00 7.523153937252584633e-01 -2.265355722325557597e+00
6.719585609456367514e+00 1.516150631390267012e-01 -1.860426132386204801e+00 1.516150631390267012e-01 5.782384608501842216e+00 8.354093545486891426e-01 -1.860426132386204801e+00 8.354093545486891426e-01 1.397190198042612019e+00
4.786928364088359977e+00 -3.000411485684008617e-01 -1.960262835954024174e+00 -3.000411485684008617e-01 6.819259588919369897e+00 1.484202778819642576e+00 -1.960262835954024174e+00 1.484202778819642576e+00 4.902918866333187964e+00
4.312766126703868608e+00 -9.889191755419898255e-01 -1.811363988150653581e+00 -9.889191755419898255e-01 3.157539214109301273e+00 1.643000547007885004e+00 -1.811363988150653581e+00 1.643000547007885004e+00 8.263112738333237672e+00
4.448752963220901080e+00 -1.324717408280288611e+00 -2.059531470260732355e+00 -1.324717408280288611e+00 3.671712991432132256e-01 8.345363400862194636e-01 -2.059531470260732355e+00 8.345363400862194636e-01 8.971903040101139482e+00
4.800771061894438141e+00 -4.265474714314544391e-01 -2.238000382943182487e+00 -4.265474714314544391e-01 -9.447008430859443751e-01 1.870358071916093656e-01 -2.238000382943182487e+00 1.870358071916093656e-01 8.607835230955933170e+00
4.701227990631604708e-02 1.562481548843563051e+00 -1.044125993140914144e+00 1.562481548843563051e+00 -2.788153565267413203e+00 -3.407009080493215297e-02 -1.044125993140914144e+00 -3.407009080493215297e-02 -2.654290425223810868e+00
-3.312081611785453905e+00 2.754829196547417425e+00 7.303303559365874331e-02 2.754829196547417425e+00 -4.080477665961313782e+00 -3.535100806535452778e-01 7.303303559365874331e-02 -3.535100806535452778e-01 -9.262929715966825128e+00
-4.111384925698272852e+00 2.848822888390889485e+00 7.429613031824633396e-01 2.848822888390889485e+00 -6.656162437062843829e+00 -1.160467376741237455e+00 7.429613031824633396e-01 -1.160467376741237455e+00 -1.183511065605334345e+01
1.991957071140008084e+00 1.895109485358556389e+00 1.336280528627543429e+00 1.895109485358556389e+00 -8.666267249392541672e+00 -1.593172549121519177e+00 1.336280528627543429e+00 -1.593172549121519177e+00 -1.206391530544171076e+01
3.527955104732181990e+00 8.262199805715976231e-01 2.496023941429806881e-01 8.262199805715976231e-01 -1.106571416339528291e+01 -9.727731541156502404e-01 2.496023941429806881e-01 -9.727731541156502404e-01 -1.080403617202424904e+01
-5.368274247237062591e-01 5.903916978411575256e-01 -1.210727493373808361e+00 5.903916978411575256e-01 -1.069961479666139148e+01 3.777978152659895450e-01 -1.210727493373808361e+00 3.777978152659895450e-01 -8.259107796131409884e+00
-9.494746261153908407e+00 1.017313988896107579e+00 -2.307224114337633303e+00 1.017313988896107579e+00 -1.309362178650286879e+01 -1.514500710288181895e-01 -2.307224114337633303e+00 -1.514500710288181895e-01 -8.282839574737774768e+00
-1.493201455866952543e+01 8.250103657045501082e-01 -3.375819588395902127e+00 8.250103657045501082e-01 -1.391142554793457187e+01 -1.422379780977987229e+00 -3.375819588395902127e+00 -1.422379780977987229e+00 -1.220771921413574113e+01
-1.099351777741132175e+01 9.671066381066495410e-01 -3.371356397156487272e+00 9.671066381066495410e-01 -9.662798178609321553e+00 -1.115828340278594233e+00 -3.371356397156487272e+00 -1.115828340278594233e+00 -1.212398417637520431e+01