7.968836813612606207e+00 0.000000000000000000e+00 0.000000000000000000e+00 0.000000000000000000e+00 7.968836813612606207e+00 0.000000000000000000e+00 0.000000000000000000e+00 0.000000000000000000e+00 7.968836813612606207e+00
7.964670075724605169e+00 0.000000000000000000e+00 0.000000000000000000e+00 0.000000000000000000e+00 7.964670075724605169e+00 0.000000000000000000e+00 0.000000000000000000e+00 0.000000000000000000e+00 7.964670075724605169e+00
7.960233793438181493e+00 0.000000000000000000e+00 0.000000000000000000e+00 0.000000000000000000e+00 7.960233793438181493e+00 0.000000000000000000e+00 0.000000000000000000e+00 0.000000000000000000e+00 7.960233793438181493e+00
7.963440267290751606e+00 0.000000000000000000e+00 0.000000000000000000e+00 0.000000000000000000e+00 7.963440267290751606e+00 0.000000000000000000e+00 0.000000000000000000e+00 0.000000000000000000e+00 7.963440267290751606e+00
7.971439484841846834e+00 0.000000000000000000e+00 0.000000000000000000e+00 0.000000000000000000e+00 7.971439484841846834e+00 0.000000000000000000e+00 0.000000000000000000e+00 0.000000000000000000e+00 7.971439484841846834e+00
7.976485222039064737e+00 0.000000000000000000e+00 0.000000000000000000e+00 0.000000000000000000e+00 7.976485222039064737e+00 0.000000000000000000e+00 0.000000000000000000e+00 0.000000000000000000e+00 7.976485222039064737e+00
7.976085389052623320e+00 0.000000000000000000e+00 0.000000000000000000e+00 0.000000000000000000e+00 7.976085389052623320e+00 0.000000000000000000e+00 0.000000000000000000e+00 0.000000000000000000e+00 7.976085389052623320e+00
7.974500959466077177e+00 0.000000000000000000e+00 0.000000000000000000e+00 0.000000000000000000e+00 7.974500959466077177e+00 0.000000000000000000e+00 0.000000000000000000e+00 0.000000000000000000e+00 7.974500959466077177e+00
7.978125132616244564e+00 0.000000000000000000e+00 0.000000000000000000e+00 0.000000000000000000e+00 7.978125132616244564e+00 0.000000000000000000e+00 0.000000000000000000e+00 0.000000000000000000e+00 7.978125132616244564e+00
7.986804499153198122e+00 0.000000000000000000e+00 0.000000000000000000e+00 0.000000000000000000e+00 7.986804499153198122e+00 0.000000000000000000e+00 0.000000000000000000e+00 0.000000000000000000e+00 7.986804499153198122e+00
7.994880859695234321e+00 0.000000000000000000e+00 0.000000000000000000e+00 0.000000000000000000e+00 7.994880859695234321e+00 0.000000000000000000e+00 0.000000000000000000e+00 0.000000000000000000e+00 7.994880859695234321e+00
7.998327728698018113e+00 0.000000000000000000e+00 0.000000000000000000e+00 0.000000000000000000e+00 7.998327728698018113e+00 0.000000000000000000e+00 0.000000000000000000e+00 0.000000000000000000e+00 7.998327728698018113e+00
7.997761447142705649e+00 0.000000000000000000e+00 0.000000000000000000e+00 0.000000000000000000e+00 7.997761447142705649e+00 0.000000000000000000e+00 0.000000000000000000e+00 0.000000000000000000e+00 7.997761447142705649e+00
7.997506010261077769e+00 0.000000000000000000e+00 0.000000000000000000e+00 0.000000000000000000e+00 7.997506010261077769e+00 0.000000000000000000e+00 0.000000000000000000e+00 0.000000000000000000e+00 7.997506010261077769e+00
7.997631581547251400e+00 0.000000000000000000e+00 0.000000000000000000e+00 0.000000000000000000e+00 7.997631581547251400e+00 0.000000000000000000e+00 0.000000000000000000e+00 0.000000000000000000e+00 7.997631581547251400e+00
7.992474915592573836e+00 0.000000000000000000e+00 0.000000000000000000e+00 0.000000000000000000e+00 7.992474915592573836e+00 0.000000000000000000e+00 0.000000000000000000e+00 0.000000000000000000e+00 7.992474915592573836e+00
7.980188090521237676e+00 0.000000000000000000e+00 0.000000000000000000e+00 0.000000000000000000e+00 7.980188090521237676e+00 0.000000000000000000e+00 0.000000000000000000e+00 0.000000000000000000e+00 7.980188090521237676e+00
7.964984968790985498e+00 0.000000000000000000e+00 0.000000000000000000e+00 0.000000000000000000e+00 7.964984968790985498e+00 0.000000000000000000e+00 0.000000000000000000e+00 0.000000000000000000e+00 7.964984968790985498e+00
7.953896045317167207e+00 0.000000000000000000e+00 0.000000000000000000e+00 0.000000000000000000e+00 7.953896045317167207e+00 0.000000000000000000e+00 0.000000000000000000e+00 0.000000000000000000e+00 7.953896045317167207e+00
7.950458177828569006e+00 0.000000000000000000e+00 0.000000000000000000e+00 0.000000000000000000e+00 7.950458177828569006e+00 0.000000000000000000e+00 0.000000000000000000e+00 0.000000000000000000e+00 7.950458177828569006e+00
7.951732345115077649e+00 0.000000000000000000e+00 0.000000000000000000e+00 0.000000000000000000e+00 7.951732345115077649e+00 0.000000000000000000e+00 0.000000000000000000e+00 0.000000000000000000e+00 7.951732345115077649e+00
7.954304219490594186e+00 0.000000000000000000e+00 0.000000000000000000e+00 0.000000000000000000e+00 7.954304219490594186e+00 0.000000000000000000e+00 0.000000000000000000e+00 0.000000000000000000e+00 7.954304219490594186e+00
7.958194068940449561e+00 0.000000000000000000e+00 0.000000000000000000e+00 0.000000000000000000e+00 7.958194068940449561e+00 0.000000000000000000e+00 0.000000000000000000e+00 0.000000000000000000e+00 7.958194068940449561e+00
7.966529249482640296e+00 0.000000000000000000e+00 0.000000000000000000e+00 0.000000000000000000e+00 7.966529249482640296e+00 0.000000000000000000e+00 0.000000000000000000e+00 0.000000000000000000e+00 7.966529249482640296e+00
7.979942714471696341e+00 0.000000000000000000e+00 0.000000000000000000e+00 0.000000000000000000e+00 7.979942714471696341e+00 0.000000000000000000e+00 0.000000000000000000e+00 0.000000000000000000e+00 7.979942714471696341e+00
7.992518950377095699e+00 0.000000000000000000e+00 0.000000000000000000e+00 0.000000000000000000e+00 7.992518950377095699e+00 0.000000000000000000e+00 0.000000000000000000e+00 0.000000000000000000e+00 7.992518950377095699e+00
7.998140140471832638e+00 0.000000000000000000e+00 0.000000000000000000e+00 0.000000000000000000e+00 7.998140140471832638e+00 0.000000000000000000e+00 0.000000000000000000e+00 0.000000000000000000e+00 7.998140140471832638e+00
7.995578654937514962e+00 0.000000000000000000e+00 0.000000000000000000e+00 0.000000000000000000e+00 7.995578654937514962e+00 0.000000000000000000e+00 0.000000000000000000e+00 0.000000000000000000e+00 7.995578654937514962e+00
7.989007222751657089e+00 0.000000000000000000e+00 0.000000000000000000e+00 0.000000000000000000e+00 7.989007222751657089e+00 0.000000000000000000e+00 0.000000000000000000e+00 0.000000000000000000e+00 7.989007222751657089e+00
7.982566039764046550e+00 0.000000000000000000e+00 0.000000000000000000e+00 0.000000000000000000e+00 7.982566039764046550e+00 0.000000000000000000e+00 0.000000000000000000e+00 0.000000000000000000e+00 7.982566039764046550e+00
7.975575287269922597e+00 0.000000000000000000e+00 0.000000000000000000e+00 0.000000000000000000e+00 7.975575287269922597e+00 0.000000000000000000e+00 0.000000000000000000e+00 0.000000000000000000e+00 7.975575287269922597e+00
7.966841204335934457e+00 0.000000000000000000e+00 0.000000000000000000e+00 0.000000000000000000e+00 7.966841204335934457e+00 0.000000000000000000e+00 0.000000000000000000e+00 0.000000000000000000e+00 7.966841204335934457e+00
7.959041091556732006e+00 0.000000000000000000e+00 0.000000000000000000e+00 0.000000000000000000e+00 7.959041091556732006e+00 0.000000000000000000e+00 0.000000000000000000e+00 0.000000000000000000e+00 7.959041091556732006e+00
7.956625681646559478e+00 0.000000000000000000e+00 0.000000000000000000e+00 0.000000000000000000e+00 7.956625681646559478e+00 0.000000000000000000e+00 0.000000000000000000e+00 0.000000000000000000e+00 7.956625681646559478e+00
7.960538039764847973e+00 0.000000000000000000e+00 0.000000000000000000e+00 0.000000000000000000e+00 7.960538039764847973e+00 0.000000000000000000e+00 0.000000000000000000e+00 0.000000000000000000e+00 7.960538039764847973e+00
7.967186606294696105e+00 0.000000000000000000e+00 0.000000000000000000e+00 0.000000000000000000e+00 7.967186606294696105e+00 0.000000000000000000e+00 0.000000000000000000e+00 0.000000000000000000e+00 7.967186606294696105e+00
7.972673230619034435e+00 0.000000000000000000e+00 0.000000000000000000e+00 0.000000000000000000e+00 7.972673230619034435e+00 0.000000000000000000e+00 0.000000000000000000e+00 0.000000000000000000e+00 7.972673230619034435e+00
7.976152527280155446e+00 0.000000000000000000e+00 0.000000000000000000e+00 0.000000000000000000e+00 7.976152527280155446e+00 0.000000000000000000e+00 0.000000000000000000e+00 0.000000000000000000e+00 7.976152527280155446e+00
7.980569412617232850e+00 0.000000000000000000e+00 0.000000000000000000e+00 0.000000000000000000e+00 7.980569412617232850e+00 0.000000000000000000e+00 0.000000000000000000e+00 0.000000000000000000e+00 7.980569412617232850e+00
7.988366749730412941e+00 0.000000000000000000e+00 0.000000000000000000e+00 0.000000000000000000e+00 7.988366749730412941e+00 0.000000000000000000e+00 0.000000000000000000e+00 0.000000000000000000e+00 7.988366749730412941e+00
7.996134123456070775e+00 0.000000000000000000e+00 0.000000000000000000e+00 0.000000000000000000e+00 7.996134123456070775e+00 0.000000000000000000e+00 0.000000000000000000e+00 0.000000000000000000e+00 7.996134123456070775e+00
7.999457175986579571e+00 0.000000000000000000e+00 0.000000000000000000e+00 0.000000000000000000e+00 7.999457175986579571e+00 0.000000000000000000e+00 0.000000000000000000e+00 0.000000000000000000e+00 7.999457175986579571e+00
7.999961154255528228e+00 0.000000000000000000e+00 0.000000000000000000e+00 0.000000000000000000e+00 7.999961154255528228e+00 0.000000000000000000e+00 0.000000000000000000e+00 0.000000000000000000e+00 7.999961154255528228e+00
8.001780224333414182e+00 0.000000000000000000e+00 0.000000000000000000e+00 0.000000000000000000e+00 8.001780224333414182e+00 0.000000000000000000e+00 0.000000000000000000e+00 0.000000000000000000e+00 8.001780224333414182e+00
8.005737141566207526e+00 0.000000000000000000e+00 0.000000000000000000e+00 0.000000000000000000e+00 8.005737141566207526e+00 0.000000000000000000e+00 0.000000000000000000e+00 0.000000000000000000e+00 8.005737141566207526e+00
8.007752536654985320e+00 0.000000000000000000e+00 0.000000000000000000e+00 0.000000000000000000e+00 8.007752536654985320e+00 0.000000000000000000e+00 0.000000000000000000e+00 0.000000000000000000e+00 8.007752536654985320e+00
8.004693424654155010e+00 0.000000000000000000e+00 0.000000000000000000e+00 0.000000000000000000e+00 8.004693424654155010e+00 0.000000000000000000e+00 0.000000000000000000e+00 0.000000000000000000e+00 8.004693424654155010e+00
7.998347635104431141e+00 0.000000000000000000e+00 0.000000000000000000e+00 0.000000000000000000e+00 7.998347635104431141e+00 0.000000000000000000e+00 0.000000000000000000e+00 0.000000000000000000e+00 7.998347635104431141e+00
7.990964131411101512e+00 0.000000000000000000e+00 0.000000000000000000e+00 0.000000000000000000e+00 7.990964131411101512e+00 0.000000000000000000e+00 0.000000000000000000e+00 0.000000000000000000e+00 7.990964131411101512e+00
7.983766191362612119e+00 0.000000000000000000e+00 0.000000000000000000e+00 0.000000000000000000e+00 7.983766191362612119e+00 0.000000000000000000e+00 0.000000000000000000e+00 0.000000000000000000e+00 7.983766191362612119e+00
7.977624373675764602e+00 0.000000000000000000e+00 0.000000000000000000e+00 0.000000000000000000e+00 7.977624373675764602e+00 0.000000000000000000e+00 0.000000000000000000e+00 0.000000000000000000e+00 7.977624373675764602e+00
7.973409199056578522e+00 0.000000000000000000e+00 0.000000000000000000e+00 0.000000000000000000e+00 7.973409199056578522e+00 0.000000000000000000e+00 0.000000000000000000e+00 0.000000000000000000e+00 7.973409199056578522e+00
7.972928089389990980e+00 0.000000000000000000e+00 0.000000000000000000e+00 0.000000000000000000e+00 7.972928089389990980e+00 0.000000000000000000e+00 0.000000000000000000e+00 0.000000000000000000e+00 7.972928089389990980e+00
7.978210116624051551e+00 0.000000000000000000e+00 0.000000000000000000e+00 0.000000000000000000e+00 7.978210116624051551e+00 0.000000000000000000e+00 0.000000000000000000e+00 0.000000000000000000e+00 7.978210116624051551e+00
7.988666341059874831e+00 0.000000000000000000e+00 0.000000000000000000e+00 0.000000000000000000e+00 7.988666341059874831e+00 0.000000000000000000e+00 0.000000000000000000e+00 0.000000000000000000e+00 7.988666341059874831e+00
8.000171617239040245e+00 0.000000000000000000e+00 0.000000000000000000e+00 0.000000000000000000e+00 8.000171617239040245e+00 0.000000000000000000e+00 0.000000000000000000e+00 0.000000000000000000e+00 8.000171617239040245e+00
8.009939986463365358e+00 0.000000000000000000e+00 0.000000000000000000e+00 0.000000000000000000e+00 8.009939986463365358e+00 0.000000000000000000e+00 0.000000000000000000e+00 0.000000000000000000e+00 8.009939986463365358e+00
8.015400853402971038e+00 0.000000000000000000e+00 0.000000000000000000e+00 0.000000000000000000e+00 8.015400853402971038e+00 0.000000000000000000e+00 0.000000000000000000e+00 0.000000000000000000e+00 8.015400853402971038e+00
8.012798509379846834e+00 0.000000000000000000e+00 0.000000000000000000e+00 0.000000000000000000e+00 8.012798509379846834e+00 0.000000000000000000e+00 0.000000000000000000e+00 0.000000000000000000e+00 8.012798509379846834e+00
8.001664313121635175e+00 0.000000000000000000e+00 0.000000000000000000e+00 0.000000000000000000e+00 8.001664313121635175e+00 0.000000000000000000e+00 0.000000000000000000e+00 0.000000000000000000e+00 8.001664313121635175e+00
7.983928128975450456e+00 0.000000000000000000e+00 0.000000000000000000e+00 0.000000000000000000e+00 7.983928128975450456e+00 0.000000000000000000e+00 0.000000000000000000e+00 0.000000000000000000e+00 7.983928128975450456e+00
7.963251694848231921e+00 0.000000000000000000e+00 0.000000000000000000e+00 0.000000000000000000e+00 7.963251694848231921e+00 0.000000000000000000e+00 0.000000000000000000e+00 0.000000000000000000e+00 7.963251694848231921e+00
7.947251607849550759e+00 0.000000000000000000e+00 0.000000000000000000e+00 0.000000000000000000e+00 7.947251607849550759e+00 0.000000000000000000e+00 0.000000000000000000e+00 0.000000000000000000e+00 7.947251607849550759e+00
7.942110749130882219e+00 0.000000000000000000e+00 0.000000000000000000e+00 0.000000000000000000e+00 7.942110749130882219e+00 0.000000000000000000e+00 0.000000000000000000e+00 0.000000000000000000e+00 7.942110749130882219e+00
7.944970274462592741e+00 0.000000000000000000e+00 0.000000000000000000e+00 0.000000000000000000e+00 7.944970274462592741e+00 0.000000000000000000e+00 0.000000000000000000e+00 0.000000000000000000e+00 7.944970274462592741e+00
7.951426265012966788e+00 0.000000000000000000e+00 0.000000000000000000e+00 0.000000000000000000e+00 7.951426265012966788e+00 0.000000000000000000e+00 0.000000000000000000e+00 0.000000000000000000e+00 7.951426265012966788e+00
7.961264403579678905e+00 0.000000000000000000e+00 0.000000000000000000e+00 0.000000000000000000e+00 7.961264403579678905e+00 0.000000000000000000e+00 0.000000000000000000e+00 0.000000000000000000e+00 7.961264403579678905e+00
7.974545600574109550e+00 0.000000000000000000e+00 0.000000000000000000e+00 0.000000000000000000e+00 7.974545600574109550e+00 0.000000000000000000e+00 0.000000000000000000e+00 0.000000000000000000e+00 7.974545600574109550e+00
7.989775336528162519e+00 0.000000000000000000e+00 0.000000000000000000e+00 0.000000000000000000e+00 7.989775336528162519e+00 0.000000000000000000e+00 0.000000000000000000e+00 0.000000000000000000e+00 7.989775336528162519e+00
8.003654055437078085e+00 0.000000000000000000e+00 0.000000000000000000e+00 0.000000000000000000e+00 8.003654055437078085e+00 0.000000000000000000e+00 0.000000000000000000e+00 0.000000000000000000e+00 8.003654055437078085e+00
8.010709695634687932e+00 0.000000000000000000e+00 0.000000000000000000e+00 0.000000000000000000e+00 8.010709695634687932e+00 0.000000000000000000e+00 0.000000000000000000e+00 0.000000000000000000e+00 8.010709695634687932e+00
8.007094436009211336e+00 0.000000000000000000e+00 0.000000000000000000e+00 0.000000000000000000e+00 8.007094436009211336e+00 0.000000000000000000e+00 0.000000000000000000e+00 0.000000000000000000e+00 8.007094436009211336e+00
7.994262683462642904e+00 0.000000000000000000e+00 0.000000000000000000e+00 0.000000000000000000e+00 7.994262683462642904e+00 0.000000000000000000e+00 0.000000000000000000e+00 0.000000000000000000e+00 7.994262683462642904e+00
7.977797359851003911e+00 0.000000000000000000e+00 0.000000000000000000e+00 0.000000000000000000e+00 7.977797359851003911e+00 0.000000000000000000e+00 0.000000000000000000e+00 0.000000000000000000e+00 7.977797359851003911e+00
7.963215129455713637e+00 0.000000000000000000e+00 0.000000000000000000e+00 0.000000000000000000e+00 7.963215129455713637e+00 0.000000000000000000e+00 0.000000000000000000e+00 0.000000000000000000e+00 7.963215129455713637e+00
7.954059819684434096e+00 0.000000000000000000e+00 0.000000000000000000e+00 0.000000000000000000e+00 7.954059819684434096e+00 0.000000000000000000e+00 0.000000000000000000e+00 0.000000000000000000e+00 7.954059819684434096e+00
7.951451393576319582e+00 0.000000000000000000e+00 0.000000000000000000e+00 0.000000000000000000e+00 7.951451393576319582e+00 0.000000000000000000e+00 0.000000000000000000e+00 0.000000000000000000e+00 7.951451393576319582e+00
7.954863822348351654e+00 0.000000000000000000e+00 0.000000000000000000e+00 0.000000000000000000e+00 7.954863822348351654e+00 0.000000000000000000e+00 0.000000000000000000e+00 0.000000000000000000e+00 7.954863822348351654e+00
7.963156857995141280e+00 0.000000000000000000e+00 0.000000000000000000e+00 0.000000000000000000e+00 7.963156857995141280e+00 0.000000000000000000e+00 0.000000000000000000e+00 0.000000000000000000e+00 7.963156857995141280e+00
7.974889592200990585e+00 0.000000000000000000e+00 0.000000000000000000e+00 0.000000000000000000e+00 7.974889592200990585e+00 0.000000000000000000e+00 0.000000000000000000e+00 0.000000000000000000e+00 7.974889592200990585e+00
7.988469853247917918e+00 0.000000000000000000e+00 0.000000000000000000e+00 0.000000000000000000e+00 7.988469853247917918e+00 0.000000000000000000e+00 0.000000000000000000e+00 0.000000000000000000e+00 7.988469853247917918e+00
8.000775696516777558e+00 0.000000000000000000e+00 0.000000000000000000e+00 0.000000000000000000e+00 8.000775696516777558e+00 0.000000000000000000e+00 0.000000000000000000e+00 0.000000000000000000e+00 8.000775696516777558e+00
8.008161863145778270e+00 0.000000000000000000e+00 0.000000000000000000e+00 0.000000000000000000e+00 8.008161863145778270e+00 0.000000000000000000e+00 0.000000000000000000e+00 0.000000000000000000e+00 8.008161863145778270e+00
8.008542024388455971e+00 0.000000000000000000e+00 0.000000000000000000e+00 0.000000000000000000e+00 8.008542024388455971e+00 0.000000000000000000e+00 0.000000000000000000e+00 0.000000000000000000e+00 8.008542024388455971e+00
8.001752687205925696e+00 0.000000000000000000e+00 0.000000000000000000e+00 0.000000000000000000e+00 8.001752687205925696e+00 0.000000000000000000e+00 0.000000000000000000e+00 0.000000000000000000e+00 8.001752687205925696e+00
7.989826399250230970e+00 0.000000000000000000e+00 0.000000000000000000e+00 0.000000000000000000e+00 7.989826399250230970e+00 0.000000000000000000e+00 0.000000000000000000e+00 0.000000000000000000e+00 7.989826399250230970e+00
7.976696329272867203e+00 0.000000000000000000e+00 0.000000000000000000e+00 0.000000000000000000e+00 7.976696329272867203e+00 0.000000000000000000e+00 0.000000000000000000e+00 0.000000000000000000e+00 7.976696329272867203e+00
7.966695760392153325e+00 0.000000000000000000e+00 0.000000000000000000e+00 0.000000000000000000e+00 7.966695760392153325e+00 0.000000000000000000e+00 0.000000000000000000e+00 0.000000000000000000e+00 7.966695760392153325e+00
7.962298303315240133e+00 0.000000000000000000e+00 0.000000000000000000e+00 0.000000000000000000e+00 7.962298303315240133e+00 0.000000000000000000e+00 0.000000000000000000e+00 0.000000000000000000e+00 7.962298303315240133e+00
7.961536596172856584e+00 0.000000000000000000e+00 0.000000000000000000e+00 0.000000000000000000e+00 7.961536596172856584e+00 0.000000000000000000e+00 0.000000000000000000e+00 0.000000000000000000e+00 7.961536596172856584e+00
7.960842095162613319e+00 0.000000000000000000e+00 0.000000000000000000e+00 0.000000000000000000e+00 7.960842095162613319e+00 0.000000000000000000e+00 0.000000000000000000e+00 0.000000000000000000e+00 7.960842095162613319e+00
7.960187428732069748e+00 0.000000000000000000e+00 0.000000000000000000e+00 0.000000000000000000e+00 7.960187428732069748e+00 0.000000000000000000e+00 0.000000000000000000e+00 0.000000000000000000e+00 7.960187428732069748e+00
7.962334422090330044e+00 0.000000000000000000e+00 0.000000000000000000e+00 0.000000000000000000e+00 7.962334422090330044e+00 0.000000000000000000e+00 0.000000000000000000e+00 0.000000000000000000e+00 7.962334422090330044e+00
7.967615338411785153e+00 0.000000000000000000e+00 0.000000000000000000e+00 0.000000000000000000e+00 7.967615338411785153e+00 0.000000000000000000e+00 0.000000000000000000e+00 0.000000000000000000e+00 7.967615338411785153e+00
7.972658121859004687e+00 0.000000000000000000e+00 0.000000000000000000e+00 0.000000000000000000e+00 7.972658121859004687e+00 0.000000000000000000e+00 0.000000000000000000e+00 0.000000000000000000e+00 7.972658121859004687e+00
7.974021893606724198e+00 0.000000000000000000e+00 0.000000000000000000e+00 0.000000000000000000e+00 7.974021893606724198e+00 0.000000000000000000e+00 0.000000000000000000e+00 0.000000000000000000e+00 7.974021893606724198e+00
7.970347758097155122e+00 0.000000000000000000e+00 0.000000000000000000e+00 0.000000000000000000e+00 7.970347758097155122e+00 0.000000000000000000e+00 0.000000000000000000e+00 0.000000000000000000e+00 7.970347758097155122e+00
7.963390027100950341e+00 0.000000000000000000e+00 0.000000000000000000e+00 0.000000000000000000e+00 7.963390027100950341e+00 0.000000000000000000e+00 0.000000000000000000e+00 0.000000000000000000e+00 7.963390027100950341e+00
7.957316455569256597e+00 0.000000000000000000e+00 0.000000000000000000e+00 0.000000000000000000e+00 7.957316455569256597e+00 0.000000000000000000e+00 0.000000000000000000e+00 0.000000000000000000e+00 7.957316455569256597e+00
7.955784971569939579e+00 0.000000000000000000e+00 0.000000000000000000e+00 0.000000000000000000e+00 7.955784971569939579e+00 0.000000000000000000e+00 0.000000000000000000e+00 0.000000000000000000e+00 7.955784971569939579e+00
7.959671992433077214e+00 0.000000000000000000e+00 0.000000000000000000e+00 0.000000000000000000e+00 7.959671992433077214e+00 0.000000000000000000e+00 0.000000000000000000e+00 0.000000000000000000e+00 7.959671992433077214e+00
7.969052218766670137e+00 0.000000000000000000e+00 0.000000000000000000e+00 0.000000000000000000e+00 7.969052218766670137e+00 0.000000000000000000e+00 0.000000000000000000e+00 0.000000000000000000e+00 7.969052218766670137e+00
7.983398872308011818e+00 0.000000000000000000e+00 0.000000000000000000e+00 0.000000000000000000e+00 7.983398872308011818e+00 0.000000000000000000e+00 0.000000000000000000e+00 0.000000000000000000e+00 7.983398872308011818e+00
7.997234089534334345e+00 0.000000000000000000e+00 0.000000000000000000e+00 0.000000000000000000e+00 7.997234089534334345e+00 0.000000000000000000e+00 0.000000000000000000e+00 0.000000000000000000e+00 7.997234089534334345e+00
8.003587216949821226e+00 0.000000000000000000e+00 0.000000000000000000e+00 0.000000000000000000e+00 8.003587216949821226e+00 0.000000000000000000e+00 0.000000000000000000e+00 0.000000000000000000e+00 8.003587216949821226e+00
8.000036661493886925e+00 0.000000000000000000e+00 0.000000000000000000e+00 0.000000000000000000e+00 8.000036661493886925e+00 0.000000000000000000e+00 0.000000000000000000e+00 0.000000000000000000e+00 8.000036661493886925e+00
7.989142601135378996e+00 0.000000000000000000e+00 0.000000000000000000e+00 0.000000000000000000e+00 7.989142601135378996e+00 0.000000000000000000e+00 0.000000000000000000e+00 0.000000000000000000e+00 7.989142601135378996e+00
7.976143997288256848e+00 0.000000000000000000e+00 0.000000000000000000e+00 0.000000000000000000e+00 7.976143997288256848e+00 0.000000000000000000e+00 0.000000000000000000e+00 0.000000000000000000e+00 7.976143997288256848e+00
7.966428438496938824e+00 0.000000000000000000e+00 0.000000000000000000e+00 0.000000000000000000e+00 7.966428438496938824e+00 0.000000000000000000e+00 0.000000000000000000e+00 0.000000000000000000e+00 7.966428438496938824e+00
7.962283891726197993e+00 0.000000000000000000e+00 0.000000000000000000e+00 0.000000000000000000e+00 7.962283891726197993e+00 0.000000000000000000e+00 0.000000000000000000e+00 0.000000000000000000e+00 7.962283891726197993e+00
7.962449617688229786e+00 0.000000000000000000e+00 0.000000000000000000e+00 0.000000000000000000e+00 7.962449617688229786e+00 0.000000000000000000e+00 0.000000000000000000e+00 0.000000000000000000e+00 7.962449617688229786e+00
7.966386438465703712e+00 0.000000000000000000e+00 0.000000000000000000e+00 0.000000000000000000e+00 7.966386438465703712e+00 0.000000000000000000e+00 0.000000000000000000e+00 0.000000000000000000e+00 7.966386438465703712e+00
7.976534527361248017e+00 0.000000000000000000e+00 0.000000000000000000e+00 0.000000000000000000e+00 7.976534527361248017e+00 0.000000000000000000e+00 0.000000000000000000e+00 0.000000000000000000e+00 7.976534527361248017e+00
7.992114345821121013e+00 0.000000000000000000e+00 0.000000000000000000e+00 0.000000000000000000e+00 7.992114345821121013e+00 0.000000000000000000e+00 0.000000000000000000e+00 0.000000000000000000e+00 7.992114345821121013e+00
8.007106118362964153e+00 0.000000000000000000e+00 0.000000000000000000e+00 0.000000000000000000e+00 8.007106118362964153e+00 0.000000000000000000e+00 0.000000000000000000e+00 0.000000000000000000e+00 8.007106118362964153e+00
8.015259471377810030e+00 0.000000000000000000e+00 0.000000000000000000e+00 0.000000000000000000e+00 8.015259471377810030e+00 0.000000000000000000e+00 0.000000000000000000e+00 0.000000000000000000e+00 8.015259471377810030e+00
8.013883192401085154e+00 0.000000000000000000e+00 0.000000000000000000e+00 0.000000000000000000e+00 8.013883192401085154e+00 0.000000000000000000e+00 0.000000000000000000e+00 0.000000000000000000e+00 8.013883192401085154e+00
8.005185802573880238e+00 0.000000000000000000e+00 0.000000000000000000e+00 0.000000000000000000e+00 8.005185802573880238e+00 0.000000000000000000e+00 0.000000000000000000e+00 0.000000000000000000e+00 8.005185802573880238e+00
7.993732126318689346e+00 0.000000000000000000e+00 0.000000000000000000e+00 0.000000000000000000e+00 7.993732126318689346e+00 0.000000000000000000e+00 0.000000000000000000e+00 0.000000000000000000e+00 7.993732126318689346e+00
7.981719553684675006e+00 0.000000000000000000e+00 0.000000000000000000e+00 0.000000000000000000e+00 7.981719553684675006e+00 0.000000000000000000e+00 0.000000000000000000e+00 0.000000000000000000e+00 7.981719553684675006e+00
7.968052860520276504e+00 0.000000000000000000e+00 0.000000000000000000e+00 0.000000000000000000e+00 7.968052860520276504e+00 0.000000000000000000e+00 0.000000000000000000e+00 0.000000000000000000e+00 7.968052860520276504e+00
7.953195786281069601e+00 0.000000000000000000e+00 0.000000000000000000e+00 0.000000000000000000e+00 7.953195786281069601e+00 0.000000000000000000e+00 0.000000000000000000e+00 0.000000000000000000e+00 7.953195786281069601e+00
7.940773268620821668e+00 0.000000000000000000e+00 0.000000000000000000e+00 0.000000000000000000e+00 7.940773268620821668e+00 0.000000000000000000e+00 0.000000000000000000e+00 0.000000000000000000e+00 7.940773268620821668e+00
7.933908120349682846e+00 0.000000000000000000e+00 0.000000000000000000e+00 0.000000000000000000e+00 7.933908120349682846e+00 0.000000000000000000e+00 0.000000000000000000e+00 0.000000000000000000e+00 7.933908120349682846e+00
7.933341098243633205e+00 0.000000000000000000e+00 0.000000000000000000e+00 0.000000000000000000e+00 7.933341098243633205e+00 0.000000000000000000e+00 0.000000000000000000e+00 0.000000000000000000e+00 7.933341098243633205e+00
7.938168112716883940e+00 0.000000000000000000e+00 0.000000000000000000e+00 0.000000000000000000e+00 7.938168112716883940e+00 0.000000000000000000e+00 0.000000000000000000e+00 0.000000000000000000e+00 7.938168112716883940e+00
7.946390536307137431e+00 0.000000000000000000e+00 0.000000000000000000e+00 0.000000000000000000e+00 7.946390536307137431e+00 0.000000000000000000e+00 0.000000000000000000e+00 0.000000000000000000e+00 7.946390536307137431e+00
7.956188302408246038e+00 0.000000000000000000e+00 0.000000000000000000e+00 0.000000000000000000e+00 7.956188302408246038e+00 0.000000000000000000e+00 0.000000000000000000e+00 0.000000000000000000e+00 7.956188302408246038e+00
7.965976043191062672e+00 0.000000000000000000e+00 0.000000000000000000e+00 0.000000000000000000e+00 7.965976043191062672e+00 0.000000000000000000e+00 0.000000000000000000e+00 0.000000000000000000e+00 7.965976043191062672e+00
7.973899957503625124e+00 0.000000000000000000e+00 0.000000000000000000e+00 0.000000000000000000e+00 7.973899957503625124e+00 0.000000000000000000e+00 0.000000000000000000e+00 0.000000000000000000e+00 7.973899957503625124e+00
7.978972271243859993e+00 0.000000000000000000e+00 0.000000000000000000e+00 0.000000000000000000e+00 7.978972271243859993e+00 0.000000000000000000e+00 0.000000000000000000e+00 0.000000000000000000e+00 7.978972271243859993e+00
7.981665930388347263e+00 0.000000000000000000e+00 0.000000000000000000e+00 0.000000000000000000e+00 7.981665930388347263e+00 0.000000000000000000e+00 0.000000000000000000e+00 0.000000000000000000e+00 7.981665930388347263e+00
7.982844451215425963e+00 0.000000000000000000e+00 0.000000000000000000e+00 0.000000000000000000e+00 7.982844451215425963e+00 0.000000000000000000e+00 0.000000000000000000e+00 0.000000000000000000e+00 7.982844451215425963e+00