7.942870951880999897e+00 7.888578815657999677e+00 7.904283957718000408e+00 7.941769209819000253e+00 7.887739007232999811e+00 3.921270741553000150e+00 7.936324734141000370e+00 3.905683095151999851e+00 7.901938923356000011e+00 7.945563660051999655e+00 3.899451274836000181e+00 3.919122235312999969e+00 3.958135126410999849e+00 7.892589906609999595e+00 7.900512665484000330e+00 3.956854690026000210e+00 7.888564506216000360e+00 3.919264906943999982e+00 3.953548544136999965e+00 3.903978838252999850e+00 7.903003563606000093e+00 3.959016519757999841e+00 3.906662298036000180e+00 3.915037747790000022e+00 2.130083471410999962e+00 2.016445186966000058e+00 1.900063807875000066e+00 2.121296999993000032e+00 2.010932483805000004e+00 5.889248572519999669e+00 6.104558705300999755e+00 2.022044021176999884e+00 1.899269619640000073e+00 6.108169157626999635e+00 5.992517340572000251e+00 1.895758090401000073e+00 6.104035980313000209e+00 5.994687691710000266e+00 5.879440993228000067e+00 2.121196370669999887e+00 6.001641957913999903e+00 1.899164004076999923e+00 2.118987973918999845e+00 5.996438048144000277e+00 5.878732388876000137e+00 6.104699571345999942e+00 2.010003647778999980e+00 5.894301766085000338e+00 1.992625505187999968e+00 2.009835287936000192e+00 1.513735982999999969e-03 7.963777539769999692e+00 1.991638609315000030e+00 1.998636704948999920e+00 1.993778026199999998e+00 9.479978499999999753e-04 1.985265424215000074e+00 1.999529474320000055e+00 2.003475216090000011e+00 3.972920394203999894e+00 7.035706545000000069e-03 1.985119793019999967e+00 5.976067868544999939e+00 1.999709725962999896e+00 7.325776507000000132e-03 5.973001334170000121e+00 1.989024744618000051e+00 5.979859975516999882e+00 7.959882409633999956e+00 1.055973547799999961e-02 5.981398797640999909e+00 1.993523065742000000e+00 1.994438246554000038e+00 3.992805627341000196e+00 1.991743995703999959e+00 1.997516248791999960e+00 5.973648012564000354e+00 3.994270986950000157e+00 2.213860724999999925e-03 5.981955420577000027e+00 5.976404558721999827e+00 1.978833838015999991e+00 4.001864545513999616e+00 5.969387186501999842e+00 5.981907579290999699e+00 1.980395453327000066e+00 1.076427481599999923e-02 3.976431399006000067e+00 1.990098015770999984e+00 1.980057340721000037e+00 5.968337964580999966e+00 7.963011641379000416e+00 2.004373275821000000e+00 5.957714994656999608e+00 1.992381269118999931e+00 3.994831948284999878e+00 3.993996022401999912e+00 1.984444536995999986e+00 5.988390313543000332e+00 5.969355311410000198e+00 7.959849300720000187e+00 5.969024032287999937e+00 5.979365280399999705e+00 5.964635516307000174e+00 7.964121530079999900e+00 3.987319905361999872e+00 5.974030738363000026e+00 1.994975433243000085e+00 5.969505978241000044e+00 3.989733031998000001e+00 1.987047799901999978e+00 5.975522931319000364e+00 5.971485746416999696e+00 3.979816071806999922e+00 3.990136572940000015e+00 5.982413781275999654e+00 5.977818637818000269e+00 5.977088689631999685e+00 3.993460978295999997e+00 5.987973667211999640e+00
7.942190105803000222e+00 7.885897992215999963e+00 7.906541303274000398e+00 7.934961555567999980e+00 7.881307568635000038e+00 3.936170747790999958e+00 7.903350086138000385e+00 3.906382217966000159e+00 7.892078588692999830e+00 7.958175632127000299e+00 3.868409928355999838e+00 3.923727669199000179e+00 3.965154992099999998e+00 7.909932716196999891e+00 7.884385246141000003e+00 3.958289713430000134e+00 7.886492179751999565e+00 3.923830374738999982e+00 3.937317477330999793e+00 3.896434287346000058e+00 7.899161256762999628e+00 3.970701152661999966e+00 3.911657123601000041e+00 3.898703743527000221e+00 2.164189839980999785e+00 2.024333150527999781e+00 1.901955046946000039e+00 2.107619262856999853e+00 1.990630356462000039e+00 5.909349305504999705e+00 6.094301783734000111e+00 2.053269270303000216e+00 1.907449746116000044e+00 6.114725010146999651e+00 5.958982697795000227e+00 1.875380403559999909e+00 6.088749217372000366e+00 5.966525269772000151e+00 5.852960176330999964e+00 2.113662594372000214e+00 6.009184729952999682e+00 1.895865485994999933e+00 2.100853961062000064e+00 5.979465287377999871e+00 5.854488406779999821e+00 6.069383060893000170e+00 1.981289064882999940e+00 5.957588381855000392e+00 2.002333994702000020e+00 2.097139651530000037e+00 2.046374981000000093e-02 7.955003383309000142e+00 1.991948393146999896e+00 2.028434225319999840e+00 2.005671799517999787e+00 7.957851235182999972e+00 1.952269410721999998e+00 2.046974251106000064e+00 2.061081631566000105e+00 3.914522359505999916e+00 1.407255541870000015e-01 1.954791421444999955e+00 5.977099803465000250e+00 2.044336985985999888e+00 2.384147397999999973e-02 5.955664974898000175e+00 1.978087347280000019e+00 5.995678123090000256e+00 7.917772225182999613e+00 7.257140222999999835e-02 6.003575986952999877e+00 2.000252363202999817e+00 2.009874760496999979e+00 4.042761541872000208e+00 1.989322506916000100e+00 2.023629831771000198e+00 5.961712655960999641e+00 3.991957560097000091e+00 4.480166017000000028e-02 6.012941866610000297e+00 5.973882192499000432e+00 1.927016629368000000e+00 4.087162702311999851e+00 5.935127487863000262e+00 6.003484353009000074e+00 1.925093166184999927e+00 1.021252759730000015e-01 3.925412565359000183e+00 1.982986641594999933e+00 1.916596049495000065e+00 5.925337835318000401e+00 7.904731817414000439e+00 2.058301535532999882e+00 5.856885988811000310e+00 2.001896132725999866e+00 3.949720992385000073e+00 3.973689299711999912e+00 1.953953747469999946e+00 6.051315325425999703e+00 5.930259323270999694e+00 7.846103854878999861e+00 5.937551444332999750e+00 5.991055768514000235e+00 5.913916125691000225e+00 7.964376502080000364e+00 4.002439804156000314e+00 5.960471611135999659e+00 2.007052678179999994e+00 5.930998227717999782e+00 4.026695598226000428e+00 1.958770410560999986e+00 5.967939914036000104e+00 5.944966140088999929e+00 3.942015490318000026e+00 4.008644890169000163e+00 6.008288900602999583e+00 5.983978014574000248e+00 5.975864766911000103e+00 4.098105753169999588e+00 6.048030653676000234e+00
7.937885104403999748e+00 7.887153648584999566e+00 7.905599416634999876e+00 7.923028186663000128e+00 7.879725575492000367e+00 3.951611172725999932e+00 7.868324789269999897e+00 3.903887661981999990e+00 7.878523502712000415e+00 7.103049830000000321e-03 3.832972351470000039e+00 3.929704002714999866e+00 3.978701877293000067e+00 7.931002102285000355e+00 7.865225340160000300e+00 3.968512508290999996e+00 7.889894196885999911e+00 3.929105269737000139e+00 3.926849423120000182e+00 3.886300566707999948e+00 7.892149003701000254e+00 3.989265651283000036e+00 3.911981027021000035e+00 3.883618123952000012e+00 2.164804020624000014e+00 2.029595667739000131e+00 1.909110622460000073e+00 2.074226839100000053e+00 1.966431672896000071e+00 5.921657261265999672e+00 6.082239706904999821e+00 2.068886440875000066e+00 1.948467346668999900e+00 6.109964558005000157e+00 5.937940784355999924e+00 1.859523545784000031e+00 6.066751266168999734e+00 5.936272827564000210e+00 5.821755502749000222e+00 2.098371350352000064e+00 6.010269553067000281e+00 1.889830058468999985e+00 2.075418687883999969e+00 5.963728240065999664e+00 5.842003165847000190e+00 6.009489841309999747e+00 1.946099555353999921e+00 6.019173294305000255e+00 2.013135064281999842e+00 2.181359267948999925e+00 3.038847096200000125e-02 7.959065245787999565e+00 2.003902998834000027e+00 2.059226999579999884e+00 2.023292462475000164e+00 7.959901470939000134e+00 1.925895975566999985e+00 2.108121628685999838e+00 2.121170166644999799e+00 3.888545328013000013e+00 2.966538148489999971e-01 1.937942196384000004e+00 5.982055869039999862e+00 2.093662455756000185e+00 3.265841053099999974e-02 5.943119397123999725e+00 1.980844854395999999e+00 6.016577246567000437e+00 7.905342642258999852e+00 1.115917351410000008e-01 6.022217936572999974e+00 2.008824125700999996e+00 2.029788452285000044e+00 4.072690651821000429e+00 1.986941025929999993e+00 2.046542340106999980e+00 5.969389225801999821e+00 3.906662796533999948e+00 1.000683204070000054e-01 6.059398840627999938e+00 5.968848146936999832e+00 1.908362135109000102e+00 4.100469605447999655e+00 5.911542716135000042e+00 6.024053895495000255e+00 1.876657032987000040e+00 1.605086483439999989e-01 3.927187206086999893e+00 1.987234445744000100e+00 1.853841699346000071e+00 5.896201246020999598e+00 7.839697278833999583e+00 2.094436715559000017e+00 5.761675108569000336e+00 2.032416312076999798e+00 3.831772262189999889e+00 3.898945637285000210e+00 1.950956717169000099e+00 6.126926912362000266e+00 5.903043897974000309e+00 7.740060695414999969e+00 5.928259706410999641e+00 6.015977393223000291e+00 5.898955232052999875e+00 4.049369345699999762e-02 4.012543656640000123e+00 5.950950426676000049e+00 2.011956851768999854e+00 5.900498852672999561e+00 4.036358775034000423e+00 1.931074204778999936e+00 5.973426492894000184e+00 5.911298973371000187e+00 3.909271493821000032e+00 4.002030406270000285e+00 6.022100717965000349e+00 5.992640836534000037e+00 5.982203371690999916e+00 4.172545411726000353e+00 6.114661568688999793e+00
7.938530357592999742e+00 7.898577868339000219e+00 7.911003314760000293e+00 7.915040219257999610e+00 7.888404843021000090e+00 3.969529806320000187e+00 7.840649799313999857e+00 3.903086886756999885e+00 7.871095127309000183e+00 1.949158552200000102e-02 3.798929399718999900e+00 3.939152881626000191e+00 4.001158187322999993e+00 7.962188762822999699e+00 7.852171929868999811e+00 3.989787400672000217e+00 7.904783872843999859e+00 3.937560633047000103e+00 3.924385535093999788e+00 3.878286254062000005e+00 7.891028966676000067e+00 4.016188125179000146e+00 3.912988444494999829e+00 3.872577876139999820e+00 2.138961653902999860e+00 2.033476137306999831e+00 1.920699496162000086e+00 2.050820150324999869e+00 1.945580466160000022e+00 5.929082254581000022e+00 6.075211092774999599e+00 2.071764956280000014e+00 2.011900450014000086e+00 6.097140023629999739e+00 5.942734877416000039e+00 1.856573246419999990e+00 6.046371922258000353e+00 5.917448903400999605e+00 5.785908556074000231e+00 2.086140538187999827e+00 6.011868559296999592e+00 1.881223954476999971e+00 2.051515329363999829e+00 5.957068749214999848e+00 5.841744101876000350e+00 5.941575184544999999e+00 1.910100673048999997e+00 6.068003724230999651e+00 2.004862707047999848e+00 2.255440691552000221e+00 2.530099711899999951e-02 1.152928569999999917e-02 2.029867408602000101e+00 2.101606311639999891e+00 2.042758327270000063e+00 5.245629663700000084e-02 1.909937944556999945e+00 2.172942022437000187e+00 2.177348944519999829e+00 3.909225590300999809e+00 2.628284311140000051e-01 1.932887687822000045e+00 5.989215940943999783e+00 2.137436478280999808e+00 2.944301410600000043e-02 5.934753847727000320e+00 1.996301768367999996e+00 6.043877064047999959e+00 7.901826720969999940e+00 9.173626431600000186e-02 6.037991491567000324e+00 2.021092115271999834e+00 2.046633316594999918e+00 4.054057053396999954e+00 1.985081333247000090e+00 2.062267082901000137e+00 6.008299738398999779e+00 3.854512829557000142e+00 1.119475922779999966e-01 6.122223589723000181e+00 5.959483877950000341e+00 1.922146859254000084e+00 4.043330641594000241e+00 5.898945619540000074e+00 6.059333749349000264e+00 1.830265141956000097e+00 1.144249764969999944e-01 3.987308996503999836e+00 2.005661669449000151e+00 1.798860998427000091e+00 5.900162835014000073e+00 7.817840367011999803e+00 2.118787093070999994e+00 5.689737378875999951e+00 2.074447404145999929e+00 3.782710750632999996e+00 3.892528113020000013e+00 1.981567946156000071e+00 6.215896705401999789e+00 5.903254256487000085e+00 7.774555122806999563e+00 5.945974084608000254e+00 6.070006774121999626e+00 5.935604094235999995e+00 6.561049792499999700e-02 4.015371077501000308e+00 5.951839187736999826e+00 2.006644968592000033e+00 5.896440470322000138e+00 3.988217347572999838e+00 1.911092209703000089e+00 6.008891149603000414e+00 5.867084189443000142e+00 3.932855546931000035e+00 3.981802345560999878e+00 6.013668442676999959e+00 6.001718804149000164e+00 6.010493055360999648e+00 4.097122411767999850e+00 6.187682177663999639e+00
7.940296338765000073e+00 7.917900117221000400e+00 7.920240645113000078e+00 7.909164015321000107e+00 7.903657485295999763e+00 3.988121403182999902e+00 7.817224757608999930e+00 3.901563697673000153e+00 7.867540192785999587e+00 3.162068222400000322e-02 3.765752928830000013e+00 3.950696754022999801e+00 4.030662161838000301e+00 2.934088736399999980e-02 7.843587557755999917e+00 4.018754586929000006e+00 7.927644783337999712e+00 3.947007162405999914e+00 3.928081172634000140e+00 3.870312905246000135e+00 7.893645376783999801e+00 4.047756369706999813e+00 3.913755796790999941e+00 3.863831618553000169e+00 2.111096831258000073e+00 2.035644841581000009e+00 1.925977600341000073e+00 2.041549226483000190e+00 1.934209229669999974e+00 5.934454874832000293e+00 6.067205865745999738e+00 2.061002767549999781e+00 2.050277730674999965e+00 6.075142836101999677e+00 5.966300002196000207e+00 1.862523671191999908e+00 6.022103464929999816e+00 5.905584162878000143e+00 5.762505510469000392e+00 2.077611871124000142e+00 6.012041215350000023e+00 1.869350416257999914e+00 2.031753305619000027e+00 5.950338330802000364e+00 5.848675826904999653e+00 5.882388187065999752e+00 1.884786290222999927e+00 6.098722021653999903e+00 1.964018789800999976e+00 2.299157342358999934e+00 2.050860481399999907e-02 3.405161645299999845e-02 2.059656187611000000e+00 2.164892316073999901e+00 2.057166867672000077e+00 1.142407278119999953e-01 1.906390697503000053e+00 2.231261903821000203e+00 2.209969596690000149e+00 3.966105945778000130e+00 7.471292652600000639e-02 1.930101136171000098e+00 5.979561451671999706e+00 2.165488670275999894e+00 1.135305131599999989e-02 5.921844116025000382e+00 2.014691272460999993e+00 6.068303645870000373e+00 7.893049491022999575e+00 4.159702299799999947e-02 6.046899242507000061e+00 2.038619618980999970e+00 2.053370678604999888e+00 4.030701910261000442e+00 1.988220612114000030e+00 2.065203556513000027e+00 6.071367458974999742e+00 3.898983199634999952e+00 6.821908414499999740e-02 6.181571947832999570e+00 5.937429921138999589e+00 1.955281351120000011e+00 4.001802064032999873e+00 5.886626592008999737e+00 6.123213019539999635e+00 1.782094073142999946e+00 5.752619554300000132e-02 4.024287248865999977e+00 2.032638553771000112e+00 1.757600806494000079e+00 5.936450169991999815e+00 7.842250826405000375e+00 2.148890289745999826e+00 5.642731655829999582e+00 2.107279922994000021e+00 3.863403875661000075e+00 3.935989846476999787e+00 2.033500870746999922e+00 6.298095225603000280e+00 5.925885429021000128e+00 7.873774911437999791e+00 5.960341922618000332e+00 6.144792493526000321e+00 6.012214169303000233e+00 5.091563796399999758e-02 4.005787248166999603e+00 5.962031600371999751e+00 1.994916483089999915e+00 5.924703593335999940e+00 3.929344600079000216e+00 1.899882276217000010e+00 6.064434435231000009e+00 5.811901008848000316e+00 4.006291374605000399e+00 3.975755993148000211e+00 5.978744603724000406e+00 5.998155992206999798e+00 6.059808913015999998e+00 3.971000800835999822e+00 6.236380350822000374e+00
7.934400981198000302e+00 7.938178466933999644e+00 7.924436172240000076e+00 7.898312025480000109e+00 7.918108183652000420e+00 4.004896061405999852e+00 7.789943175693999855e+00 3.894616317072999934e+00 7.859728675029000300e+00 4.286254700199999823e-02 3.730126622513000090e+00 3.962020909013999947e+00 4.062967153120999875e+00 6.220892975600000180e-02 7.832061670706999656e+00 4.049934016769999978e+00 7.950833411506000203e+00 3.954219241176999855e+00 3.934027708952999802e+00 3.858560299066999821e+00 7.892235089636000289e+00 4.078633872183000442e+00 3.910264647802999871e+00 3.854399377897999912e+00 2.087936884067000065e+00 2.034443562662000105e+00 1.916908147568000098e+00 2.022991762864000176e+00 1.931904072090000035e+00 5.939298694565000147e+00 6.049760632975999641e+00 2.034606829338999834e+00 2.054399843990999841e+00 6.047110986906999663e+00 5.996694204491999969e+00 1.862584846817000095e+00 5.990730894972999820e+00 5.894502005676000245e+00 5.780408640641000240e+00 2.065694188070000159e+00 6.004817250591999667e+00 1.856631625361000015e+00 2.012511355165000015e+00 5.934402031242999698e+00 5.856235726805000041e+00 5.858855094618999892e+00 1.884735141336999931e+00 6.091191127632000324e+00 1.892761666471999948e+00 2.294534321382000197e+00 2.339631094900000013e-02 5.564662618599999777e-02 2.078359606924999881e+00 2.244520308739000214e+00 2.063048995297000143e+00 1.307121917730000027e-01 1.915872907435000050e+00 2.275397829084000012e+00 2.199567232634000113e+00 4.036705231396999771e+00 7.920083591160000047e+00 1.923679765262999997e+00 5.929560889675999924e+00 2.176302583440000049e+00 1.341603570999999953e-02 5.906201659673000037e+00 2.026636921097999977e+00 6.079788036953999608e+00 7.907345320283000412e+00 1.669593639499999949e-02 6.042635777704999711e+00 2.059351981404000220e+00 2.049003734083000072e+00 4.063622667620999884e+00 2.002710834355999836e+00 2.054120730954999807e+00 6.139861751528999712e+00 3.966356878836000188e+00 1.709734249200000125e-02 6.212287625412000303e+00 5.904171940028000165e+00 1.985572817343999930e+00 4.015949377839000078e+00 5.874680905898999939e+00 6.206903741661999874e+00 1.729901968352000052e+00 1.030062705770000003e-01 4.009426782871999606e+00 2.058172011712999794e+00 1.735348797938000009e+00 5.984704824912999932e+00 7.882744678805999605e+00 2.195591774396000062e+00 5.623156145253999760e+00 2.117817416398000141e+00 3.987444391918999909e+00 3.919170370064999798e+00 2.082917377457000008e+00 6.355691978464999892e+00 5.939392517324000309e+00 7.899232707960000432e+00 5.936555857525999791e+00 6.210748427737000199e+00 6.100503105738999565e+00 4.069529499700000330e-02 3.987567208070000202e+00 5.978604953428999558e+00 1.983341764148000008e+00 5.974703111600000227e+00 3.916620281024000061e+00 1.893323932739999993e+00 6.111781610599999581e+00 5.749950076065999838e+00 4.035460320738000206e+00 3.996030940724999869e+00 5.922866397284000328e+00 5.975349702653000250e+00 6.106018241659000090e+00 3.929714096716999894e+00 6.239725431493000407e+00
7.919649054578999703e+00 7.955926580030999951e+00 7.920525504017000173e+00 7.880782020490999962e+00 7.928738814658999878e+00 4.019547168701000039e+00 7.757055332753999721e+00 3.881851150948000040e+00 7.845820281143000230e+00 5.186982017300000025e-02 3.692480783350000184e+00 3.972715235338999840e+00 4.094921576457999812e+00 9.571159937600000334e-02 7.815020725842999560e+00 4.080321661226999908e+00 7.971235605730999652e+00 3.958895881355999791e+00 3.940145207941000205e+00 3.843347728088000181e+00 7.884570633920000127e+00 4.106983495727000388e+00 3.901893557969999815e+00 3.843837720973999783e+00 2.063089101141000192e+00 2.024764024298999932e+00 1.894351813566000020e+00 1.989478678875000073e+00 1.931650179804000000e+00 5.938873728219999926e+00 6.025725658576999599e+00 2.000963004158999858e+00 2.042015630647000091e+00 6.023615514020000283e+00 6.025386936184999875e+00 1.858536538232999913e+00 5.957463415854999944e+00 5.883099547135000051e+00 5.829873675224000351e+00 2.044528296331999950e+00 5.992151527549999912e+00 1.848225072720999895e+00 1.990448942103999919e+00 5.913131408605000416e+00 5.860355002626000065e+00 5.873846657910999802e+00 1.909538772107999938e+00 6.050896459485000101e+00 1.803328360310999967e+00 2.247203490412000182e+00 4.597162878399999736e-02 6.131211234299999840e-02 2.075695080909000012e+00 2.323915780024000011e+00 2.061899176087000018e+00 1.113838452990000005e-01 1.934553244294999974e+00 2.300565746273000034e+00 2.149792807799999927e+00 4.090318674318999648e+00 7.937823694770999694e+00 1.916053087806999899e+00 5.846410949568999982e+00 2.177161600104000172e+00 5.332993209300000009e-02 5.907610197659000306e+00 2.029795573376000029e+00 6.077580628419999798e+00 7.940283721945999851e+00 3.155077153199999790e-02 6.029817895491000002e+00 2.073286700111999892e+00 2.036762905345999908e+00 4.127545936826000350e+00 2.030201538400000061e+00 2.035898750977000127e+00 6.196597258569999767e+00 3.989038230620999936e+00 1.605309114500000009e-02 6.201965666601999772e+00 5.880256222294000246e+00 1.994767526398000035e+00 4.058767749709000228e+00 5.877016435227999658e+00 6.280014513226999995e+00 1.684011125275000076e+00 2.324960582399999975e-01 3.972028132440999837e+00 2.078489312390999988e+00 1.734715693607000064e+00 6.023418462535000018e+00 7.922977630637999980e+00 2.254102322390000079e+00 5.626429246538999784e+00 2.106322386131000091e+00 4.049508904868000414e+00 3.842214554596000031e+00 2.111256516756999879e+00 6.394939653897999676e+00 5.915490923483000429e+00 7.831936249560000007e+00 5.880988745992000055e+00 6.240722252354999888e+00 6.177094140159000268e+00 5.903275547799999995e-02 3.990700493037000030e+00 6.004055167144000116e+00 1.975621215549000054e+00 6.027194901354000045e+00 3.945055221826000214e+00 1.884949015364000058e+00 6.127130001037000007e+00 5.691918234887999972e+00 3.996869224079000027e+00 4.028379817552999675e+00 5.860613885225999908e+00 5.945091898699000232e+00 6.124284691107000356e+00 3.998051225719000179e+00 6.219507072166999606e+00
7.903798770486000436e+00 7.972875823196000411e+00 7.913419536804999765e+00 7.862104071000000083e+00 7.938258818725000054e+00 4.033556278754000246e+00 7.724519253409999564e+00 3.867484459543999886e+00 7.832238633831000385e+00 5.780079706800000244e-02 3.657578092108999979e+00 3.984095194973999998e+00 4.125524500770000103e+00 1.276391470590000077e-01 7.796940870833999782e+00 4.109845311228999876e+00 1.698605693099999869e-02 3.963297859443999815e+00 3.947184492947000134e+00 3.829156856866000158e+00 7.876007877280000180e+00 4.134570148226000441e+00 3.892360184635999865e+00 3.834121407267999881e+00 2.030083321523000084e+00 1.999475744471999938e+00 1.869162165337000081e+00 1.945725653783999975e+00 1.925282885479999928e+00 5.927464035929999930e+00 6.004865622316000184e+00 1.975212917654000089e+00 2.040767283961999912e+00 6.010075409805000213e+00 6.044741916388000291e+00 1.871389026716999915e+00 5.930868523696999794e+00 5.876588241159000248e+00 5.869471423317000003e+00 2.014748207019999793e+00 5.985790226683000093e+00 1.851380478422000042e+00 1.966411201494000061e+00 5.901644508567000180e+00 5.859813999711000143e+00 5.914582826283999673e+00 1.944538158467000066e+00 5.997384400292999906e+00 1.708824201222999939e+00 2.180466390859999937e+00 9.067103669699999591e-02 5.074506626699999690e-02 2.047605589960999950e+00 2.384487356704999783e+00 2.056092697318999907e+00 1.060357448310000061e-01 1.952789646850999983e+00 2.306815349180999952e+00 2.086476413449999789e+00 4.105417888035000296e+00 7.567779200799999717e-02 1.915344053881999908e+00 5.768760817198000268e+00 2.177214206009999931e+00 9.966691799900000148e-02 5.949030933919000397e+00 2.029054540478000046e+00 6.069054621119000181e+00 7.940040621419999667e+00 6.715729942999999758e-02 6.026827488044999903e+00 2.067164596313999958e+00 2.024346342801000009e+00 4.133714064050000303e+00 2.067745710541000204e+00 2.024467755148000148e+00 6.232315886244999881e+00 3.980202194968999851e+00 7.153701655499999923e-02 6.158659399707000048e+00 5.889070498205000170e+00 1.977706245517000028e+00 4.070765288758000366e+00 5.906147471476000277e+00 6.320462753588000027e+00 1.660729214325999958e+00 3.145531862000000012e-01 3.951800939568999915e+00 2.095660434787999904e+00 1.750302892105999986e+00 6.044022693724000028e+00 7.963822094356999948e+00 2.311436968756999999e+00 5.645490277084999953e+00 2.085822584884000186e+00 4.026830508117999585e+00 3.804128299235999933e+00 2.115964365636000100e+00 6.431416767530000023e+00 5.860357775983000117e+00 7.768690234486999913e+00 5.829393128080000430e+00 6.230450427311000183e+00 6.233177352594999832e+00 7.480235460200000686e-02 4.040235615973999828e+00 6.041563717445000314e+00 1.970734662813000027e+00 6.067841177550000076e+00 3.978299799160000205e+00 1.863655859987999985e+00 6.103143879023000373e+00 5.656899242738999689e+00 3.964366402338999951e+00 4.048377840107000303e+00 5.808444165634999656e+00 5.928769021602000144e+00 6.112230541559999786e+00 4.086923950613000400e+00 6.213962491544999800e+00
7.895971686344999796e+00 1.503942683000000086e-02 7.910632268908000420e+00 7.849922786760999749e+00 7.951848456736000159e+00 4.048696676239999626e+00 7.700257251593000341e+00 3.856608202746000025e+00 7.827726755127000224e+00 6.128409084900000164e-02 3.630676692683000084e+00 3.997407085642000091e+00 4.155782638703000131e+00 1.567221718410000131e-01 7.784454898871000061e+00 4.139474170707000411e+00 3.837558110799999672e-02 3.970232295251999943e+00 3.957191944135999950e+00 3.820727694644999950e+00 7.873883922585999784e+00 4.163316556034000193e+00 3.886185837160000212e+00 3.827750035588000088e+00 1.992186890900000007e+00 1.960534342127999929e+00 1.859726241636000088e+00 1.920725338341999988e+00 1.914731267285999960e+00 5.906726933772000088e+00 5.992298577726000275e+00 1.967663511755000094e+00 2.067307066635999835e+00 6.001636065780999729e+00 6.051051278394999677e+00 1.910269419567000027e+00 5.911837099487000202e+00 5.887978155699999938e+00 5.881665913688999936e+00 1.983695348177000106e+00 5.991766940960999932e+00 1.867080175601000036e+00 1.948648988126999937e+00 5.908757400656000414e+00 5.858019920793999802e+00 5.966056844820999849e+00 1.978651687723999908e+00 5.945628036519000403e+00 1.619830332337000023e+00 2.115628126883000171e+00 1.243123226419999977e-01 2.895112163299999944e-02 1.997325597392000107e+00 2.419459084780000158e+00 2.047238029313000141e+00 1.149345285279999990e-01 1.960821190812999992e+00 2.301320681705000037e+00 2.034391710687000199e+00 4.085648669473999739e+00 1.383233544659999981e-01 1.925425961480000003e+00 5.727578717839000078e+00 2.181125736892000067e+00 9.835884389400000039e-02 6.034176449508000140e+00 2.032747070435999781e+00 6.060552841416999570e+00 7.915663006347999797e+00 1.026481360650000063e-01 6.049773666511000236e+00 2.038893207716999889e+00 2.020481924625999959e+00 4.076427854238000137e+00 2.108204983392000020e+00 2.030916634932999898e+00 6.246292077588999625e+00 3.965800548395999936e+00 1.167568399510000021e-01 6.107704382816000255e+00 5.935120267574999886e+00 1.941255796706000014e+00 4.030333484666999588e+00 5.961525709038999921e+00 6.332663360776000339e+00 1.667781733495000029e+00 2.524484923379999857e-01 3.969830907251000074e+00 2.109097849569999905e+00 1.772466632106999951e+00 6.053752938840999853e+00 1.961447002000000009e-02 2.355711668471000220e+00 5.684328506118999869e+00 2.074011606223999937e+00 3.964418686831999938e+00 3.861435406710000073e+00 2.105100139725000208e+00 6.469825935190000266e+00 5.809838415487000418e+00 7.799556110462000369e+00 5.804742885592999890e+00 6.195911083875000003e+00 6.270183266494999685e+00 6.624592492099999619e-02 4.113385552158000280e+00 6.087494393894999689e+00 1.968900982706000002e+00 6.096727308192000372e+00 3.998495653143999906e+00 1.825631706151999989e+00 6.059943162266000272e+00 5.659031912420999788e+00 3.974146050355999993e+00 4.046990644477999943e+00 5.777608464208999983e+00 5.937249895246999642e+00 6.091518707939999722e+00 4.080623779599999779e+00 6.243412192412000294e+00
7.895999820009000025e+00 2.932771259900000121e-02 7.912845242440000426e+00 7.844644568562999964e+00 7.969238805075000265e+00 4.063990985858000116e+00 7.684917646945000236e+00 3.849726191099999806e+00 7.833126748580999887e+00 6.371390026499999804e-02 3.612597806993000038e+00 4.010993371991999901e+00 4.185629274989000059e+00 1.826334547329999947e-01 7.777974226942999891e+00 4.167645120761999777e+00 5.845322546799999741e-02 3.979202779775000032e+00 3.969805700106999957e+00 3.818331803143999892e+00 7.878314954393999869e+00 4.191155712541999812e+00 3.883911641467999942e+00 3.824128911328000147e+00 1.957312942886000107e+00 1.920609618644000038e+00 1.872886621741999935e+00 1.943581802341999953e+00 1.904514660136999993e+00 5.883992686340000056e+00 5.988844726820000020e+00 1.974109269296000058e+00 2.089014976372999932e+00 5.989564468261000307e+00 6.043773003733000415e+00 1.955218894829999998e+00 5.894112832880000319e+00 5.913379067237999998e+00 5.877235559654000241e+00 1.958289557379000012e+00 6.001339479961999679e+00 1.886426007574999897e+00 1.944915974039999940e+00 5.925117537038000037e+00 5.859902490888999615e+00 6.010025929321000326e+00 2.004542587987999891e+00 5.915381792560999941e+00 1.551137906196000005e+00 2.060337537881999914e+00 1.177729296519999941e-01 5.093354678000000350e-03 1.934499403306999987e+00 2.433173168062999991e+00 2.038917784165999780e+00 9.467988257300000154e-02 1.958272971491999970e+00 2.288488567002000096e+00 1.997120456682000000e+00 4.061434479948999865e+00 7.379853882799999876e-02 1.934837338392999984e+00 5.717151502381000228e+00 2.184330201953000206e+00 3.991363069799999663e-02 6.135702324550999620e+00 2.046878939142000142e+00 6.047668798072000307e+00 7.928918059239999927e+00 1.196109126839999953e-01 6.096343770673000151e+00 2.003061091864000165e+00 2.025398795161999832e+00 4.034500269379000414e+00 2.143270571012000136e+00 2.053716402055000056e+00 6.238230315375999702e+00 3.954810061624999928e+00 8.287959974500000437e-02 6.068978539598999689e+00 5.995243844936999800e+00 1.900844737099999904e+00 3.982168053510999783e+00 6.022598518427000336e+00 6.317950366802000062e+00 1.711101545415000036e+00 1.120562440039999941e-01 4.016976764388999754e+00 2.111351142623000054e+00 1.796209444365999941e+00 6.063402923904999575e+00 2.399516160400000028e-02 2.377945240108000124e+00 5.740799596468000310e+00 2.086101830107999877e+00 3.920100964616000105e+00 3.967000883804999933e+00 2.082041939134999797e+00 6.482240260428000056e+00 5.791406384503000382e+00 7.898682119121000156e+00 5.798871905461999710e+00 6.151437582686000383e+00 6.286930933205000294e+00 5.283329029900000334e-02 4.166718708037000063e+00 6.129076178753000370e+00 1.977859838969000084e+00 6.116834412758000106e+00 4.006851933933999632e+00 1.788556361549999973e+00 6.022108204345999916e+00 5.696871388485999610e+00 4.020467876314000044e+00 4.037519621428000249e+00 5.769953952536000408e+00 5.960677879497000120e+00 6.068617906720000121e+00 3.999668936912000206e+00 6.281271768013000134e+00