-3.512131755179999891e+04
-3.512204045919999771e+04
-3.512157095139999728e+04
-3.512208719700000074e+04
-3.512233125260000088e+04
-3.512232529429999704e+04
-3.512272894339999766e+04
-3.512249600340000325e+04
-3.512264347090000228e+04
-3.512271123130000342e+04
-3.512232477649999782e+04
-3.512275977940000303e+04
-3.512275494479999907e+04
-3.512255321969999932e+04
-3.512308203849999700e+04
-3.512283498369999870e+04
-3.512294956559999991e+04
-3.512313181739999709e+04
-3.512305273450000095e+04
-3.512327578689999791e+04
-3.512300380430000223e+04
-3.512321009780000168e+04
-3.512343674650000321e+04
-3.512333591039999737e+04
-3.512356992419999733e+04
-3.512322197459999734e+04
-3.512329504179999640e+04
-3.512342676999999821e+04
-3.512329570090000198e+04
-3.512342157910000242e+04
-3.512325291329999891e+04
-3.512315389909999794e+04
-3.512325284439999814e+04
-3.512323667720000230e+04
-3.512322519579999789e+04
-3.512301380749999953e+04
-3.512303690179999830e+04
-3.512324103289999766e+04
-3.512308011809999880e+04
-3.512304841809999925e+04
-3.512305178139999771e+04
-3.512273696239999845e+04
-3.512278164059999835e+04
-3.512259025480000128e+04
-3.512251015580000239e+04
-3.512244938910000201e+04
-3.512205030699999770e+04
-3.512216387740000209e+04
-3.512219899659999646e+04
-3.512210586180000246e+04
-3.512206560149999859e+04
-3.512199374299999909e+04
-3.512196789269999863e+04
-3.512199262170000293e+04
-3.512253494299999875e+04
-3.512231536929999857e+04
-3.512211366080000153e+04
-3.512251800270000240e+04
-3.512231335129999934e+04
-3.512218859459999658e+04
-3.512255351779999910e+04
-3.512268661070000235e+04
-3.512218378749999829e+04
-3.512251991319999797e+04
-3.512268190519999916e+04
-3.512253985600000306e+04
-3.512284207820000302e+04
-3.512306768580000062e+04
-3.512288991060000262e+04
-3.512288972759999888e+04
-3.512295016139999643e+04
-3.512298699930000294e+04
-3.512311753909999970e+04
-3.512345075850000285e+04
-3.512349591730000247e+04
-3.512333886850000272e+04
-3.512325444630000129e+04
-3.512330973239999730e+04
-3.512344691530000273e+04
-3.512332641940000030e+04
-3.512324239020000095e+04
-3.512319450959999813e+04
-3.512316341860000102e+04
-3.512325912560000143e+04
-3.512331820139999763e+04
-3.512326468390000082e+04
-3.512329971130000195e+04
-3.512325135980000050e+04
-3.512322970319999877e+04
-3.512318234010000015e+04
-3.512304983029999858e+04
-3.512299765160000243e+04
-3.512312355879999814e+04
-3.512316040919999796e+04
-3.512273710209999990e+04
-3.512261625749999803e+04
-3.512279071079999994e+04
-3.512276020850000350e+04
-3.512239030059999641e+04
-3.512225246229999902e+04
-3.512241357820000121e+04
-3.512233669709999958e+04
-3.512244098579999991e+04
-3.512230950999999914e+04
-3.512212156130000221e+04
-3.512230404870000348e+04
-3.512257412119999935e+04
-3.512240926849999960e+04
-3.512213544389999879e+04
-3.512196760640000139e+04
-3.512219822250000288e+04
-3.512232835579999664e+04
-3.512234775049999735e+04
-3.512231754409999849e+04
-3.512219273519999842e+04
-3.512224120519999997e+04
-3.512245808589999797e+04
-3.512259380950000195e+04
-3.512261076560000220e+04
-3.512280377710000175e+04
-3.512281724119999853e+04
-3.512278553320000356e+04
-3.512297704440000234e+04
-3.512308455310000136e+04
-3.512293809560000227e+04
-3.512292332080000051e+04
-3.512306738279999990e+04
-3.512317305530000158e+04
-3.512327132290000009e+04
-3.512327746530000150e+04
-3.512309693149999657e+04
-3.512316317980000167e+04
-3.512315338199999678e+04
-3.512316420510000171e+04
-3.512316792659999919e+04
-3.512322860560000117e+04
-3.512316473160000169e+04
-3.512317543830000068e+04
-3.512330837169999722e+04
-3.512310661429999891e+04
-3.512304524079999828e+04
-3.512320356010000251e+04
-3.512308574139999837e+04
-3.512294016459999693e+04
-3.512290250090000336e+04
-3.512309429419999651e+04
-3.512305845589999808e+04
-3.512289227299999766e+04
-3.512271178360000340e+04
-3.512272519369999645e+04
-3.512263925230000314e+04
-3.512271358170000167e+04
-3.512267303610000090e+04
-3.512251835620000202e+04
-3.512228977650000161e+04
-3.512219913919999817e+04
-3.512230840829999943e+04
-3.512257894949999900e+04
-3.512256761949999782e+04
-3.512260985039999650e+04
-3.512290065869999671e+04
-3.512259109490000264e+04
-3.512233063750000292e+04
-3.512236111589999928e+04
-3.512242846280000231e+04
-3.512249320180000359e+04
-3.512257561469999928e+04
-3.512256742700000177e+04
-3.512238510900000256e+04
-3.512258840680000139e+04
-3.512270726190000278e+04
-3.512280785260000266e+04
-3.512268089979999786e+04
-3.512264625099999830e+04
-3.512268781350000063e+04
-3.512274167380000290e+04
-3.512289975599999889e+04
-3.512294247760000144e+04
-3.512301347710000118e+04
-3.512287134830000286e+04
-3.512292330850000144e+04
-3.512302368410000054e+04
-3.512309254379999766e+04
-3.512309777570000006e+04
-3.512305489359999774e+04
-3.512290563719999773e+04
-3.512286766270000226e+04
-3.512312469560000318e+04
-3.512310487550000107e+04
-3.512308796440000151e+04
-3.512312006290000136e+04
-3.512317704219999723e+04
-3.512320700110000325e+04
-3.512301170519999869e+04
-3.512291240490000200e+04
-3.512269042590000026e+04
-3.512277358349999849e+04
-3.512308931219999795e+04
-3.512303443179999886e+04
-3.512282423779999954e+04
-3.512273474210000131e+04
-3.512274635760000092e+04
-3.512277720150000096e+04
-3.512280665549999685e+04
-3.512274855060000118e+04
-3.512258437520000007e+04
-3.512252426240000204e+04
-3.512244051359999867e+04
-3.512251923900000111e+04
-3.512270062820000021e+04
-3.512290101639999921e+04
-3.512270734320000338e+04
-3.512235718569999881e+04
-3.512226609859999735e+04
-3.512231141070000012e+04
-3.512262611299999844e+04
-3.512283378860000084e+04
-3.512269192450000264e+04
-3.512232951180000236e+04
-3.512245135129999835e+04
-3.512268156119999912e+04
-3.512286652650000178e+04
-3.512281702999999834e+04
-3.512267681889999949e+04
-3.512272382259999722e+04
-3.512271118320000096e+04
-3.512274238219999825e+04
-3.512277706849999959e+04
-3.512272072350000235e+04
-3.512275845259999915e+04
-3.512275292050000280e+04
-3.512299869549999858e+04
-3.512318033709999872e+04
-3.512299356239999906e+04
-3.512282409080000070e+04
-3.512280319610000151e+04
-3.512279547420000017e+04
-3.512311111569999775e+04
-3.512302442549999978e+04
-3.512305938420000166e+04
-3.512312465979999979e+04
-3.512317083380000258e+04
-3.512308252540000103e+04
-3.512315482409999822e+04
-3.512315613009999652e+04
-3.512317064820000087e+04
-3.512317736500000319e+04
-3.512327964310000243e+04
-3.512317631339999934e+04
-3.512293338180000137e+04
-3.512277741319999768e+04
-3.512290832129999762e+04
-3.512303381210000225e+04
-3.512306524450000143e+04
-3.512276928210000187e+04
-3.512279504160000215e+04
-3.512283206110000174e+04
-3.512285192990000360e+04
-3.512288233790000231e+04
-3.512276473309999710e+04
-3.512269536759999755e+04
-3.512276911649999965e+04
-3.512263807500000257e+04
-3.512278459789999761e+04
-3.512269596479999745e+04
-3.512288597830000072e+04
-3.512272238069999730e+04
-3.512277259539999795e+04
-3.512262474199999997e+04
-3.512245252530000289e+04
-3.512244912369999656e+04
-3.512271450519999780e+04
-3.512267385120000108e+04
-3.512281662150000193e+04
-3.512280176319999737e+04
-3.512262950270000147e+04
-3.512266134739999688e+04
-3.512269988349999767e+04
-3.512262707110000338e+04
-3.512279106879999745e+04
-3.512269580370000040e+04
-3.512273255120000249e+04
-3.512263518849999673e+04
-3.512282189289999951e+04
-3.512274819240000215e+04
-3.512264623420000135e+04
-3.512267422049999732e+04
-3.512276339040000312e+04
-3.512289116980000108e+04
-3.512293352130000130e+04
-3.512286033540000062e+04
-3.512291413270000339e+04
-3.512284555389999878e+04
-3.512278793849999784e+04
-3.512286317530000088e+04
-3.512283076550000260e+04
-3.512274855119999847e+04
-3.512301266700000269e+04
-3.512293204819999664e+04
-3.512272290610000346e+04
