-9.517634302890000120e-01 1.380883646325999914e+00 -8.869122701960000521e-01 -1.118216660719999922e+00 1.505073368029000047e+00 4.843587674079999905e-01 -8.666158382490000145e-01 -1.104425119107000031e+00 -1.030086861920000096e+00 -1.042169969898000037e+00 -1.265932908324999939e+00 6.303638275830000248e-01 1.727100787389000081e+00 1.396157256815000025e+00 -6.666288823939999775e-01 1.921310009254000084e+00 1.581181042919999946e+00 3.184532796969999913e-01 1.639150879518999959e+00 -1.031000104946000029e+00 -7.393585007330000236e-01 1.813086277123999945e+00 -1.258153703155999947e+00 3.944404110010000242e-01 -6.136423089539999598e-01 -1.272741725909999899e-01 -7.255884629000000294e-03 -1.259139757885000099e+00 -1.584927009569999934e-01 -1.219301034509999992e-01 -3.729106131750000164e-01 -3.192699277059999896e-01 6.991491088050000302e-01 -3.353562178939999971e-01 -1.371180153800000134e-01 -1.916021965399999916e-02 -5.225047369540000153e-01 -4.334535303839999743e-01 2.532197715800000096e-02 -1.451244779777000060e+00 -5.436591480389999509e-01 2.554707361069999960e-01 -1.454467182946999948e+00 -4.684615067649999798e-01 6.386100609510000359e-01 -1.492684965613999992e+00 -3.012804383770000261e-01 8.633850359000000418e-01 3.008658446970000067e-01 3.226820883699999670e-02 5.136010028919999471e-01 7.058281169550000289e-01 8.097755214099999765e-02 -6.055751444600000061e-02 1.520388909950000089e-01 -4.961859714290000056e-01 6.547537033700000231e-02 3.413432626139999981e-01 6.078783998400000277e-02 -2.158526875760000130e-01 3.291598023389000094e+00 1.472570502130000070e-01 2.469720191839999968e-01 2.673503734980000046e-01 -7.615582864950000141e-01 1.104984246410000009e-01 1.321132765309999957e-01 5.899361029499999853e-02 -8.925100358800000522e-02 4.502837541549999933e-01 7.341443363199999517e-02 2.910135281399999982e-02 1.620365225179999924e-01 4.304440994529999953e-01 2.873214495899999860e-02 4.999570633799999692e-02 1.029806653809999945e-01 -1.008809943955000010e+00 1.028605076655999984e+00 1.630923629609999925e-01 7.774754855200000092e-02 3.731260460160000236e-01 5.320480415780000083e-01 1.153729286649999991e-01 -6.044229994300000242e-02 1.171879895199999938e-01 1.460589937716000097e+00 -6.586453603040000049e-01 8.571553539699999780e-02 -6.739205001600000189e-02 -1.457900785899999933e-02 -8.510492913799999615e-01 -9.836439484400000266e-02 -1.392277362400000107e-01 1.993402766019999883e-01 -2.910880677644999803e+00 -1.835483895771000018e+00 1.650854703159999881e-01 1.796218191670000131e-01 -6.012672338100000236e-02 -2.255559528303999972e+00 2.290778882750000023e-01 -3.565389708399999830e-02 2.463239401029999887e-01 7.100050044290000528e-01 1.545685843329999976e-01 7.075833116499999353e-02 1.381682596300000052e-02 -2.475654867899999834e-02 5.853306772549999870e-01 -4.948676350200000018e-02 -3.258748545600000102e-02 1.365371258639999918e-01 -4.264044275789999894e-01 -9.517538416500000154e-02 5.350619721299999798e-02 1.020104398679999996e-01 -7.300663074299999777e-02 2.307529631338999909e+00 2.061562740569999885e-01
-7.141915959279999671e-01 8.985029890179999645e-01 -6.404823429310000371e-01 -1.066798085450000100e+00 1.115233563320999988e+00 1.750209037690000080e-01 -4.021925920089999829e-01 -6.385945838879999448e-01 -7.635929317409999584e-01 -6.765709568119999684e-01 -9.585510304259999836e-01 3.441497770470000050e-01 1.451561626137999994e+00 8.613596726390000402e-01 -6.300607398390000169e-01 1.961466904609999951e+00 1.244290742158000063e+00 2.066402650760000015e-01 1.258102071294000091e+00 -5.038301087109999798e-01 -6.421571595589999903e-01 1.548470257880000034e+00 -9.755104730739999619e-01 2.976171801679999840e-01 -1.781251910139000083e+00 -1.205181600100000000e-01 3.013687193640000039e-01 -1.121392486490000007e+00 -2.325361995599999898e-01 -3.747788633940000169e-01 -5.228962050899999686e-02 -8.231022806309999940e-01 1.756540985131000099e+00 -5.565106201820000376e-01 6.529390874310000425e-01 2.073433990209999911e-01 -3.251839116940000163e-01 -1.280416881549999997e-01 -2.014150629900000045e-01 -7.710828234319999641e-01 -6.191275769730000267e-01 -2.986502352409999839e-01 -6.985166348539999515e-01 1.578509372109999920e-01 1.275698681700000003e+00 -5.236737169280000215e-01 -1.566302538540000067e-01 -9.049301120399999565e-02 3.345973022100000305e-02 -3.016694266600000035e-02 -2.081382312639999954e-01 1.810284642120000009e-01 2.029804768909999890e-01 1.367059821300000040e-02 1.015868677420000005e-01 2.374859854459999975e-01 1.119225779729999953e-01 2.342300989420000035e-01 5.048055560599999658e-02 6.006502748730000452e-01 4.752978956330000115e-01 2.383204105489999947e-01 5.896261431699999916e-02 8.038197961599999330e-02 -4.131392996899999753e-02 9.015047571699999485e-02 2.436021025460000100e-01 9.920444407700000633e-02 6.214468709179999939e-01 -3.860869037920000024e-01 -5.575914626700000098e-02 3.380367477699999790e-02 8.613396389999999903e-02 -3.335835947249999878e-01 3.328520354000000063e-03 -4.864741632399999932e-02 3.408261944179999947e-01 -1.645950696244000033e+00 2.285749937350000094e-01 2.784239005429999803e-01 -3.838267737900000198e-02 5.711420337860000362e-01 -1.338827955528999913e+00 1.946549950220000103e-01 -1.884185545099999887e-02 1.297971895310000012e-01 -5.688106697089999608e-01 1.031213283755000099e+00 1.961838695199999982e-01 1.473619572600000024e-02 2.314540437500000047e-01 -1.068513526359999993e-01 -3.183025020760000268e-01 8.838452657999999740e-02 3.837850697710000203e-01 -1.264110000547999935e+00 -1.059277226430000107e+00 4.748980656480000229e-01 2.268083382099999878e-01 2.119939986940000132e-01 9.039404196799999403e-02 3.775336383999999823e-01 2.318614662750000111e-01 6.131038053609999539e-01 6.893216190069999527e-01 -9.239803870799999375e-02 6.781553602699999517e-02 -1.190094547170000017e-01 1.309405224719999983e-01 -4.774792508869999952e-01 5.142672806999999853e-03 2.250228575559999888e-01 -1.241935965039999978e-01 4.691051809300000180e-02 -4.507648632699999824e-01 -1.907859393540000115e-01 5.103201094800000059e-02 1.397615690650000075e-01 -4.784724733140000019e-01 9.987907220599999414e-02
-5.378010835950000068e-01 5.231654018389999550e-01 -2.327115015350000038e-01 -8.017687949780000212e-01 5.538736378220000534e-01 -2.756855162410000171e-01 -7.221286660799999813e-02 -3.980054427859999744e-01 -2.987398523009999751e-01 -2.118758488539999874e-01 -5.443266785320000078e-01 -8.624699080599999845e-02 1.106806250345000020e+00 5.615004498550000278e-01 -3.433386442710000264e-01 1.593099646380000012e+00 8.382531260879999557e-01 -1.235404619730000042e-01 8.659452446819999594e-01 -3.329601012619999856e-01 -3.571982802299999982e-01 1.019532880871000025e+00 -6.372383926479999738e-01 2.402154611299999951e-02 -1.528676905541999975e+00 -1.701056922249999936e-01 1.741981219550000071e-01 5.004979856369999869e-01 5.808613074200000281e-02 -5.584981267320000553e-01 -2.638804276399999912e-02 -7.087427003180000185e-01 1.288106498694999935e+00 -7.074938378559999519e-01 1.061696175323000091e+00 5.892721186949999579e-01 -1.732707995049999894e-01 3.505466670240000027e-01 -6.543804667300000544e-01 1.606757474509999950e-01 -4.928572223239999772e-01 -4.251811335699999805e-01 -4.661423483999999756e-02 4.157920329220000100e-01 5.760205233199999775e-01 -3.996193473999999912e-01 -9.993298862600000221e-02 -4.905382920270000002e-01 -3.634067383840000054e-01 -1.622395252670000010e-01 -2.824212072680000185e-01 4.472287593700000063e-02 2.185442180820000024e-01 1.593318820849999873e-01 3.721194909999999984e-03 8.952953284039999460e-01 1.355192681740000071e-01 3.582891794499999671e-02 -7.250158570999999663e-02 7.334647331400000470e-01 -3.554436317496000086e+00 1.683772464000000135e-01 -4.122925936800000274e-02 -1.159190894380000003e-01 -2.050398150349999893e-01 -2.311826696199999892e-02 1.894203476000000108e-01 1.798264219199999930e-02 -1.795384243499999893e-02 -1.089524014058000034e+00 -1.462199916860000004e-01 2.525265169400000079e-02 -8.583563474899999490e-02 -1.007170129134000058e+00 -3.541496443000000105e-02 -1.513029412959999986e-01 4.392894785659999801e-01 5.757252375889999607e-01 -7.701806664850000539e-01 2.067696467369999902e-01 -1.671535128989999897e-01 5.185342721400000299e-01 -1.397769553148999977e+00 9.171250778900000289e-02 1.358680387200000006e-01 -2.052029130000000007e-02 -2.028268146270999939e+00 1.059114506975000092e+00 2.133749080379999941e-01 9.126203982099999334e-02 4.679496478040000018e-01 6.401527284500000414e-01 -2.480857228810000037e-01 2.983425613749999816e-01 1.784916021329999991e-01 1.156305705405000106e+00 1.318319510767000047e+00 5.498329797200000035e-01 1.561368844240000053e-01 3.666813550079999762e-01 2.580711606786000090e+00 4.034894561610000152e-01 4.162719339109999805e-01 7.905894284529999538e-01 -2.938565341130000008e-01 -1.827039282050000046e-01 7.671789384600000150e-02 -2.180767684209999890e-01 3.458182530930000165e-01 -1.176608590260999954e+00 9.910564720299999686e-02 4.327584676590000012e-01 -2.875124832879999981e-01 9.352242879890000360e-01 -3.313478827469999999e-01 -4.864308412280000105e-01 -7.881946161599999445e-02 2.704693355910000041e-01 -2.992861304643999798e+00 6.630784282700000198e-02
-7.961221067420000130e-01 7.064039433009999813e-01 -1.600148257940000041e-01 -6.020704408910000360e-01 3.886426888160000037e-01 -3.577299709689999996e-01 -2.009497405279999926e-01 -6.766449389030000372e-01 -1.986843256199999908e-01 1.184331145099999996e-02 -4.107660436939999937e-01 -6.600665478900000216e-02 1.068100318513000024e+00 6.701097740039999584e-01 -8.763893219399999934e-02 1.199720703532000110e+00 7.179585630689999665e-01 -3.062587440660000104e-01 8.022966728899999511e-01 -5.422317134259999616e-01 -2.167059930480000063e-01 5.482819901350000080e-01 -5.463949105350000002e-01 -7.443526192200000668e-02 -8.951536078600000335e-02 -1.459352891640000038e-01 -3.890202292789999849e-01 7.481355289859999980e-01 4.184633229990000203e-01 -2.932055522579999907e-01 -2.386721331849999961e-01 -7.367696567849999489e-01 -1.534173603456999935e+00 -6.920483776510000240e-01 7.542687307990000312e-01 4.498218463390000199e-01 -4.397246564330000163e-01 1.223486607829999961e-01 3.204525757689999921e-01 2.710822751090000149e-01 -4.827564992530000154e-01 -4.939309919579999986e-01 2.948184963209999898e-01 -4.137526670069999746e-01 3.434081600810000023e-01 5.403675302299999761e-02 2.120585618530000105e-01 -4.758115682049999795e-01 -5.903071299979999464e-01 -5.091938439750000045e-01 2.820675094699999844e-02 2.011043886920000079e-01 5.427617316200000069e-02 3.613750940609999907e-01 -1.070751295089999999e-01 1.875464101990000076e-01 1.830155777689999874e-01 -1.124931637650000010e-01 -3.921015335379999800e-01 5.836536015259999877e-01 -2.846215956866000152e+00 1.229745554800000008e-02 -3.337291538859999962e-01 -2.904018944830000226e-01 -3.252204806990000030e-01 -1.622044995580000093e-01 3.015781631499999879e-02 -1.058889967500000057e-01 -2.628016213059999884e-01 -5.537925545540000050e-01 -1.711434570789999998e-01 7.342054031099999600e-02 -1.980494333320000078e-01 -1.652979617270000090e-01 5.644555662200000101e-02 -2.387162568179999889e-01 3.667548166919999963e-01 1.806023283548999991e+00 -1.027917091022999996e+00 -1.087262249579999951e-01 -2.945529634560000165e-01 3.223248669479999995e-01 2.885859132640000158e-01 -8.309296833399999749e-02 4.541746116309999803e-01 -5.477223680200000305e-02 -2.128006903009999895e-01 -5.208713127320000469e-01 1.357026565189999867e-01 1.890019389689999996e-01 5.047586310820000310e-01 7.333460863980000299e-01 8.941828901699999665e-02 3.142780299630000274e-01 -1.782289455440000114e-01 2.383380969835000140e+00 9.455409486189999546e-01 3.646970247560000211e-01 -1.618465022760000038e-01 3.571831216610000248e-01 1.061317768164000030e+00 -1.085353855589999972e-01 3.310121783600000200e-01 6.328075710639999851e-01 -7.893060577020000190e-01 -2.610265098419999874e-01 9.350502719900000148e-02 -1.351737145470000012e-01 4.918912188410000108e-01 -2.522538913010000106e-01 1.249375249570000013e-01 3.069714731980000000e-01 -2.703973016419999875e-01 9.718548452209999633e-01 2.135738097369999922e-01 -5.261483971929999948e-01 -2.868444147320000082e-01 3.346821041310000244e-01 -9.064661586129999504e-01 -4.799119297600000222e-01
-1.105196820393000046e+00 9.411365500510000537e-01 -4.666059610769999755e-01 -5.209116612909999722e-01 5.218102198609999576e-01 1.344698204399999951e-02 -3.965805824529999857e-01 -9.287500922810000281e-01 -3.762829906299999805e-01 -1.131285954919999948e-01 -4.515300564220000035e-01 3.257353756260000233e-01 1.100462306839000037e+00 6.842184777380000416e-01 -8.829408246599999843e-02 9.410348454529999795e-01 8.038430491300000424e-01 -1.451713964709999971e-01 8.224818989940000380e-01 -6.036005609719999887e-01 -2.746110874309999894e-01 3.059614764520000030e-01 -6.459777970540000469e-01 9.683719037500000681e-02 2.971426345409999836e-01 -1.100802160589999940e-01 -7.107011848840000257e-01 -5.416138443169999928e-01 5.118730741820000096e-01 1.352961369650000079e-01 -4.180456765519999784e-01 -8.110432062939999520e-01 -1.708771684413000091e+00 -2.477481555989999862e-01 4.766278071500000268e-01 -3.342908568979999773e-01 -2.930305062290000095e-01 1.268165971590000107e-01 2.351988044616999840e+00 -2.787916922090000194e-01 -5.495987675069999856e-01 -4.720828356199999881e-02 7.714951529499999849e-02 -7.851548928930000004e-01 2.839240689509999749e-01 1.004409301593000015e+00 6.845169087579999756e-01 -9.786704716730000309e-01 -5.323035272489999858e-01 -8.159255516490000470e-01 1.107087792360000045e-01 2.543780269000000052e-03 -1.676658576800000022e-01 3.369086315850000068e-01 -1.296359915460000012e-01 -8.371957881089999720e-01 2.365733792409999980e-01 -2.057389579530000123e-01 -7.297140851710000042e-01 2.911602542739999966e-01 1.084384253459000025e+00 -6.078004936200000208e-02 -6.853043589859999507e-01 -2.756287144339999995e-01 3.620602200399999915e-01 -3.830711442600000238e-02 -9.664596258600000045e-02 -1.805807568929999884e-01 4.941221979639999762e-01 4.773095036800000246e-01 -1.920849899829999985e-01 8.768351665800000472e-02 -1.739561262050000057e-01 1.105733608281999958e+00 2.135827972290000043e-01 -2.291841999420000109e-01 1.580374295130000106e-01 4.020789121230000096e-01 -1.596221303710000095e-01 -4.332638107810000139e-01 -1.872258448169999978e-01 -2.601328077099999969e-02 1.035182319488000102e+00 2.003006551500000065e-02 4.302628037960000151e-01 -9.603742394200000254e-02 1.912658068213999973e+00 -9.109299364840000024e-01 -9.807972770999999826e-03 3.156815710429999866e-01 2.596414149169999908e-01 3.076731771169999852e-01 3.277949289870000227e-01 4.969367077310000158e-01 -3.666468412059999959e-01 7.907415199059999455e-01 -1.165356526924999914e+00 -1.488776352900000009e-02 -3.834752995940000075e-01 -1.056344248550000059e-01 -1.336622224197000053e+00 -6.596140599850000008e-01 -7.677003899600000347e-02 2.644254826119999957e-01 1.121915485590000011e-01 -1.665175045679999910e-01 1.404440656050000014e-01 1.559743219900000012e-02 4.342916313799999872e-01 8.893238859080000447e-01 8.703199058299999902e-02 -8.222163296600000504e-02 -1.031567007960000060e-01 -7.983524171220000021e-01 5.077796349490000249e-01 -3.385572140640000227e-01 -3.119807305819999876e-01 9.414781036000000394e-03 1.554939747022000107e+00 -7.669055668790000224e-01
-8.761897634740000163e-01 7.678551013940000392e-01 -6.199100715319999511e-01 -4.032339039480000165e-01 4.332146101939999827e-01 2.643996695249999918e-01 -3.095813463129999943e-01 -7.812177934749999775e-01 -2.827389803670000146e-01 -4.087447371849999844e-01 -1.764160203269999894e-01 5.444491066429999471e-01 7.665731007989999846e-01 3.914726888699999741e-01 -1.629586179810000035e-01 6.425529625700000524e-01 7.250605418609999964e-01 8.554917652700000374e-02 6.584263991630000534e-01 -3.003764736999999796e-01 -2.558584552479999941e-01 2.482223935510000090e-01 -5.477209103800000367e-01 2.627068548350000032e-01 -4.102642841100000159e-02 -3.345451824949999819e-01 -6.642102984400000132e-01 -7.219390296890000336e-01 1.859673833880000071e-01 -3.073350286500000153e-02 -1.709490467479999887e-01 -3.632817689200000255e-01 -7.937728521589999531e-01 4.334761473920000219e-01 1.906921728039999986e-01 -2.416337955629999923e-01 5.188175409500000307e-02 1.673065017150000000e-01 2.007872444848000093e+00 -8.437597671159999813e-01 -2.265203623790000009e-01 4.785649465649999823e-01 -2.181457235120000115e-01 -2.573371101990000187e-01 9.595620522499999361e-02 1.106709034114000012e+00 7.087327418709999938e-01 -7.552879296369999773e-01 -3.299836618570000102e-01 -7.231342258280000213e-01 3.387764539759999805e-01 -2.847238744000000210e-01 -3.319562773110000253e-01 7.351547350400000624e-02 -9.024497188100000233e-02 -6.684967120110000272e-01 1.931573243580000099e-01 -2.722381439689999794e-01 -6.780269765019999451e-01 -2.115819559590000065e-01 2.642614476753000208e+00 -1.017248042099999986e-02 -5.584550764019999836e-01 -1.371891937389999871e-01 7.137290637459999809e-01 3.443084876790000193e-01 -1.261997278379999865e-01 -1.615714216169999995e-01 5.234376570550000052e-01 7.037539414179999619e-01 -9.579943777400000415e-02 -7.033639274200000069e-02 -1.173469536859999968e-01 7.116471699259999673e-01 2.577146250619999912e-01 -1.139155270919999935e-01 -1.014471801429999986e-01 -8.150638798360000381e-01 8.902953723619999593e-01 -6.257028274220000075e-01 2.070782417439999967e-01 -3.311442111710000136e-01 5.997321855980000116e-01 3.091456978379999998e-01 -7.393670681599999461e-02 8.076053640199999661e-02 1.619197014475000085e+00 -3.471096963659999757e-01 -5.979147922499999934e-02 3.854339651520000132e-01 -7.742193551999999868e-02 8.382760609599999857e-02 2.674296788469999742e-01 4.496850331969999837e-01 -3.586036809150000004e-01 -1.052725238702999944e+00 -1.130074565371000039e+00 -3.240134579400000270e-01 -2.093961326279999979e-01 -6.008911452280000232e-01 -1.630224886491999925e+00 -5.225905807120000413e-01 -5.291268934599999696e-01 -9.035639872999999545e-02 5.731349503799999523e-01 3.980938002159999933e-01 2.306832727299999997e-01 9.357955901099999918e-02 1.366663384890000055e-01 7.795165103350000235e-01 -2.125604840000000018e-04 -4.537037733159999808e-01 9.090025471200000040e-02 -1.255274818581999963e+00 2.802570386739999808e-01 -5.649645404300000090e-02 -8.080102933199999338e-02 -4.003870646889999829e-01 2.042111176604000100e+00 -3.418653640770000224e-01
-1.006482680959999987e-01 2.451107027439999864e-01 -4.829474120889999944e-01 -1.509609320330000115e-01 1.072737279190000004e-01 1.392381659390000137e-01 3.915424046299999933e-02 -3.389893093240000099e-01 1.980493714250000092e-01 -6.212580585860000282e-01 3.932819589770000235e-01 4.018213904740000064e-01 1.115434336910000046e-01 -5.937425763899999848e-02 -1.215626253089999997e-01 2.220056216680000027e-01 4.093777791250000075e-01 1.216060038350000039e-01 3.845303572830000016e-01 2.282778021680000047e-01 -2.643806699000000090e-03 2.433233059659999920e-01 -1.966476596910000096e-01 2.273222037579999966e-01 -4.925291878410000268e-01 -8.329826301380000020e-01 -2.094153852139999938e-01 -6.860636220979999811e-01 -3.465027279039999963e-01 -5.341210601329999808e-01 2.001033398189999979e-01 3.572288929419999981e-01 5.424809158550000232e-01 5.607921859890000471e-01 -3.752270689239999846e-01 9.136438237859999534e-01 3.636310654389999786e-01 2.149973430250000095e-01 -4.702943364889999867e-01 -9.620107390630000532e-01 7.196678383390000544e-01 1.189175121646000033e+00 -3.154826519789999950e-01 1.021055422401000001e+00 -3.795105696839999876e-01 7.075524363130000216e-01 2.837277816250000084e-01 -3.342598681419999829e-01 -1.461749788220000068e-01 -3.521513641790000038e-01 4.554536049160000100e-01 -2.765384906119999764e-01 -4.354875538920000011e-01 -2.763285616519999821e-01 -7.124954739599999309e-02 3.093498834269999831e-01 1.493984620700000016e-02 -3.103386762470000115e-01 -2.646103826760000111e-01 -6.322442125470000285e-01 1.783212469428999913e+00 1.208613906599999982e-01 6.508464766600000062e-02 -6.926567870000000437e-04 1.769920518889999961e-01 7.214072895449999967e-01 -6.320732650999999480e-02 -8.951981849500000032e-02 -6.233756555289999834e-01 3.615078822950000270e-01 1.771631952640000118e-01 -3.390965204779999853e-01 -1.067048641199999995e-02 -1.061251120652999980e+00 2.027660074019999870e-01 1.109346903010000052e-01 -3.124939595790000024e-01 -5.102521961170000120e-01 1.073723696382999915e+00 -5.782188442410000073e-01 5.817717051440000064e-01 -4.493562560280000007e-01 -5.261083260029999487e-01 4.867500067589999868e-01 -5.378935240490000380e-01 3.814368816140000229e-01 -7.228737613460000100e-01 3.004964922919999837e-01 -3.012984759800000148e-02 2.865614955429999777e-01 -2.874624693269999809e-01 8.459005701900000618e-02 3.089242469500000018e-02 2.645712617300000069e-01 -1.618387676649999940e-01 -1.480840116358000058e+00 6.911710714369999620e-01 -3.937166267239999851e-01 7.874527345000000011e-03 -5.734591188859999855e-01 5.087543130700000055e-02 6.120270755699999676e-02 -6.734932878360000430e-01 -2.833466506189999956e-01 -4.583007417800000205e-02 8.852844515219999710e-01 2.541741659469999859e-01 4.706466052000000261e-02 -1.703880990190000111e-01 7.899939854500000191e-02 -2.234561455930000051e-01 -6.815493822839999716e-01 3.724336528359999954e-01 1.759899211070000136e-01 -1.932180992289999899e-01 1.502593332720000008e-01 2.488501906059999991e-01 -5.288921428809999492e-01 5.014622249000000309e-01 2.691062758269999744e-01
5.328220675589999678e-01 -2.480312654750000123e-01 -2.420254046349999966e-01 1.310058277860000064e-01 -1.479653652529999974e-01 -1.811550060650000127e-01 3.975097902020000018e-01 9.527523737800000503e-02 7.667389807669999779e-01 -5.025552027870000549e-01 8.943225782699999460e-01 -2.032058696099999992e-02 -3.772919878129999960e-01 -3.255057290730000163e-01 -6.863026399799999899e-02 -2.523353070350000116e-01 1.212827235880000049e-01 4.273317563299999788e-02 1.556656415700000129e-01 5.978030438660000279e-01 2.246339107900000021e-01 -1.645482683800000151e-02 1.001472835940000056e-01 8.829338728699999417e-02 -4.326377679269999832e-01 -8.889303239429999781e-01 7.083630764030000027e-01 6.947704055779999610e-01 -3.142895625980000052e-01 -7.534057127519999675e-01 1.555574913190000130e-01 8.660015969319999618e-01 1.636333427425999965e+00 2.726905083100000099e-02 -8.481586738740000131e-01 1.434973795599999935e+00 1.418726152710000077e-01 7.727933576490000345e-01 -1.629948366352000022e+00 -4.058080846409999887e-01 9.136116352140000174e-01 1.219093941064000042e+00 3.334907170340000171e-01 1.554402561342999922e+00 -5.590684776709999859e-01 2.351970102669999896e-01 -2.219303716900000029e-02 -1.579689657299999939e-01 -1.531687732800000000e-02 -2.224062363600000022e-02 -1.415381425159999984e-01 -1.995837840930000107e-01 -4.374039092750000024e-01 -4.370144400359999848e-01 -8.385844825600000108e-02 3.204269263089999931e-01 -1.971834268269999912e-01 -2.191645042539999977e-01 1.506870659120000122e-01 -6.732451331859999888e-01 -8.244849031550000040e-01 1.859804651549999965e-01 5.505598915179999997e-01 5.132174741699999793e-02 -8.345748564539999803e-01 7.436547504070000203e-01 5.283159444399999904e-02 -6.519498453199999710e-02 -6.128456642730000237e-01 2.211310616899999845e-02 3.924699425200000036e-01 -4.328879323640000276e-01 1.276141601069999965e-01 -1.285925950089999992e+00 5.900775527299999962e-02 2.902379802000000231e-01 -4.151928987619999956e-01 -1.125695712419999966e-01 -8.769788862100000304e-02 -2.345089009230000021e-01 6.096785415100000050e-01 -3.824673760530000188e-01 -1.055818744550000021e+00 4.296993881960000095e-01 -4.975631378900000068e-01 4.592862497410000189e-01 -2.697069275402999899e+00 6.294647511419999564e-01 -6.247528408300000169e-02 9.575431958499999729e-02 -2.508764824590000164e-01 -1.731018092980000089e-01 -2.111116595710000043e-01 2.910315471189999781e-01 1.062919329909999960e-01 -7.567695270640000249e-01 1.702843117668999984e+00 -2.731431889400000035e-01 4.290654838400000115e-02 -2.866269777699999993e-02 1.645435283175000096e+00 3.929019655150000068e-01 -4.917061119710000039e-01 -3.499395361909999891e-01 -4.683071087160000090e-01 4.164053360230000056e-01 1.115675245759999989e-01 1.110287526199999972e-02 -2.442931277669999901e-01 -2.688767352270000077e-01 -3.606588615740000114e-01 -4.289051981440000216e-01 5.522981126010000352e-01 6.940222803379999528e-01 -4.434849530830000108e-01 2.590394889359999842e-01 3.694340859079999762e-01 -2.038752898170000105e-01 -1.825651630402999936e+00 5.938374300680000495e-01
5.296273978319999687e-01 -3.508432068480000221e-01 -6.185504199300000117e-02 2.589441256669999802e-01 -1.661002432220000102e-01 -3.995959782890000089e-01 5.778780690139999621e-01 2.076313503970000085e-01 1.037415195639000087e+00 -1.836944626670000136e-01 1.126410412957000062e+00 -3.939026768419999769e-01 -3.652767348859999874e-01 -3.718616269159999987e-01 3.551299775399999886e-02 -6.072360076430000086e-01 -4.714372397000000242e-02 -4.242549864799999987e-02 1.019391010949999982e-01 6.918316802349999683e-01 2.895693603369999813e-01 -4.861695563289999966e-01 2.300563434289999987e-01 -2.746555530799999964e-02 1.770735972900000163e-02 -2.123466178350000011e-01 1.184093755092999967e+00 2.623688978166000219e+00 -4.594882820800000323e-02 -3.620250526250000100e-01 2.379196221619999940e-01 6.423364388640000477e-01 -2.575370557559999996e-01 -4.567641020959999909e-01 -9.108408555410000274e-01 3.821711651140000110e-01 -2.345752079519999866e-01 5.844503701850000121e-01 -1.081217217385000096e+00 2.836374368269999890e-01 -3.813104906200000255e-02 3.213077561170000207e-01 1.329723588355999908e+00 5.262186804770000448e-01 -4.874710088499999844e-02 -2.480466795069999897e-01 -1.957532422580000042e-01 3.852671881029999801e-01 2.194620163150000081e-01 9.206115277300000455e-02 -7.648057453809999906e-01 -8.441002381999999915e-02 -2.937652847269999756e-01 -3.497789587319999893e-01 -3.143095984500000190e-02 -5.676134127690000142e-01 -2.087698028449999910e-01 -1.450954817189999968e-01 1.989256915840000028e-01 -1.558510379670000057e-01 -2.514955624591999950e+00 -1.330682253799999985e-02 4.286068758939999834e-01 -2.440291197799999978e-02 -1.079505441018000056e+00 3.115931268430000012e-01 1.662990461449999902e-01 -1.421328414080000047e-01 6.228447650339999919e-01 -2.722041351519999819e-01 3.714372788950000004e-01 -1.883258634860000003e-01 1.292154534219999984e-01 2.583880814119999814e-01 -8.703871799600000625e-02 2.722543482870000142e-01 -4.319540622140000119e-01 -4.426596932099999965e-02 -1.525348148373000035e+00 1.221557081360000047e-01 2.264511731240000103e-01 -1.291573051869999988e-01 -1.884321109179999953e-01 8.439345706699999394e-02 -5.442603339429999965e-01 6.441782666409999747e-01 -1.426184703829999956e+00 4.980568682689999749e-01 -2.041323029359999874e-01 2.021242691800000102e-02 -4.935760840700000041e-02 -4.373753332259999738e-01 -3.685530572349999812e-01 2.998117194580000033e-01 3.780297755590000253e-01 2.204778881199999929e-01 9.128261502979999609e-01 -2.532972929439999965e-01 -4.705027190500000178e-01 4.701213234270000263e-01 1.197123276639999956e+00 2.450594189289999891e-01 -2.602585722740000107e-01 -3.866425085990000121e-01 -9.024745719200000238e-02 -3.377901786840000198e-01 -9.380331342400000105e-02 1.563538173840000045e-01 -1.805897953230000130e-01 -2.361239741670000114e-01 -6.261978251600000545e-02 -8.933715749999999881e-04 5.640390699330000146e-01 6.191175076210000405e-01 -1.545527876139999868e-01 3.076725424069999826e-01 2.003615468780000075e-01 -9.264261490099999496e-02 -1.475892025775999983e+00 1.209055713139999960e-01