-4.695495942960935309e+00 8.414303838046978123e-01 8.331823322751913397e-02 8.414303838046978123e-01 -1.150498404358338078e+01 1.748903638488072398e-01 8.331823322751913397e-02 1.748903638488072398e-01 -4.395153845325604713e+00
-2.521886977934204133e+00 1.084953800358303910e+00 7.171757576001593082e-02 1.084953800358303910e+00 -3.200046656216795071e+00 2.017501902477700504e-01 7.171757576001593082e-02 2.017501902477700504e-01 -6.013890800766388267e-01
6.612660346763944652e+00 1.196039002268156182e+00 1.763953653229073659e-01 1.196039002268156182e+00 7.606542656746856146e+00 6.077761969057812741e-02 1.763953653229073659e-01 6.077761969057812741e-02 4.802155944976279400e+00
3.566601307453587388e+00 9.360752956228013399e-01 3.733178300575309971e-01 9.360752956228013399e-01 9.197599495217505527e-01 3.313787121972289196e-01 3.733178300575309971e-01 3.313787121972289196e-01 4.086406809034329513e+00
-6.015349566115949287e+00 3.487497131492249824e-01 9.165981892923643626e-01 3.487497131492249824e-01 -6.519734404401055450e+00 9.551856997431963370e-01 9.165981892923643626e-01 9.551856997431963370e-01 -1.319665328844545460e+00
-8.945164666212770399e+00 -1.147708443574551179e-01 1.438550785698368362e+00 -1.147708443574551179e-01 -6.656646521328574373e+00 1.555096891138539217e+00 1.438550785698368362e+00 1.555096891138539217e+00 -4.436700030025417796e+00
-6.834821382447944238e+00 -8.958166911123248422e-02 1.849520375523932447e+00 -8.958166911123248422e-02 -4.263571675541004136e-01 1.670464935167887965e+00 1.849520375523932447e+00 1.670464935167887965e+00 -1.562664982020687487e+00
-9.529311358331024051e-01 -6.000858163145540436e-01 2.026054970468170957e+00 -6.000858163145540436e-01 7.380516752192005647e+00 1.435158228948970160e+00 2.026054970468170957e+00 1.435158228948970160e+00 4.403497434266844479e+00
3.172292259413360238e+00 -1.280755772899057954e+00 2.496629914901151714e+00 -1.280755772899057954e+00 4.400923823224471398e+00 1.273762603068300470e+00 2.496629914901151714e+00 1.273762603068300470e+00 2.560735062141576091e+00
-5.215154039387134288e-01 -1.046438832859959867e+00 1.768661758584931132e+00 -1.046438832859959867e+00 -2.949027715376295156e+00 1.658377666840060050e+00 1.768661758584931132e+00 1.658377666840060050e+00 -2.422258976543767428e+00
-4.331833928187657001e+00 -7.538016878676002674e-01 8.089444587746501547e-01 -7.538016878676002674e-01 -6.576745301662693777e+00 1.706202806951267803e+00 8.089444587746501547e-01 1.706202806951267803e+00 -4.454435782916620568e+00
-5.537852123799787307e+00 -8.437470194525938938e-01 4.810585001709378750e-01 -8.437470194525938938e-01 -6.812077680995710871e+00 1.218697363829343461e+00 4.810585001709378750e-01 1.218697363829343461e+00 -2.102753436014063837e+00
-6.047578814753892251e-01 -8.185879476261658239e-01 7.094396122873829480e-01 -8.185879476261658239e-01 -3.721770463333467838e+00 4.469137230624959933e-01 7.094396122873829480e-01 4.469137230624959933e-01 3.377992942750417615e+00
3.052127506521324918e-01 -6.914575524663990613e-01 3.382683437941693683e-01 -6.914575524663990613e-01 -2.667707401778213416e+00 -2.223482351904420076e-02 3.382683437941693683e-01 -2.223482351904420076e-02 2.889561946152376937e+00
-5.672589943899578380e+00 -7.262447028192338117e-01 1.106212541594989718e-01 -7.262447028192338117e-01 -6.691130276863375137e+00 9.125342066822403342e-02 1.106212541594989718e-01 9.125342066822403342e-02 -5.203217463277177046e+00
-6.041200292153941831e+00 -5.396225566825993969e-01 2.428213632315222026e-01 -5.396225566825993969e-01 -7.881531192983323386e+00 9.578566181875733387e-02 2.428213632315222026e-01 9.578566181875733387e-02 -7.668314538745995002e+00
-2.576977077457939025e+00 -2.352054691585949431e-01 3.785801882118464690e-01 -2.352054691585949431e-01 -5.053763079415215742e+00 -7.845134288482145946e-02 3.785801882118464690e-01 -7.845134288482145946e-02 -2.653121216521113102e+00
2.778333856126152579e+00 2.002967417752889168e-01 3.534616321277042617e-01 2.002967417752889168e-01 2.124095397658097573e-01 -2.174058336584176743e-01 3.534616321277042617e-01 -2.174058336584176743e-01 5.920075279707228688e+00
4.099786147080087595e+00 7.519535458767578895e-01 -8.294628436401363381e-02 7.519535458767578895e-01 4.676388574326663772e+00 -8.918592495216681737e-02 -8.294628436401363381e-02 -8.918592495216681737e-02 1.050663547927415742e+01
-7.550658177220974654e-01 1.105759360097907429e+00 -2.784408694150924402e-01 1.105759360097907429e+00 4.210482280990528459e+00 5.656168641963787991e-01 -2.784408694150924402e-01 5.656168641963787991e-01 6.117052694578723582e+00
-3.351778522988397846e+00 8.186502074485476621e-01 -1.755320779681895649e-01 8.186502074485476621e-01 2.892434846705935758e+00 1.117712258712168616e+00 -1.755320779681895649e-01 1.117712258712168616e+00 1.294094830412934938e+00
-2.546664964131998055e+00 1.580071460432817265e-01 -8.210456019627812574e-02 1.580071460432817265e-01 2.775249855508895802e+00 1.325016330601283654e+00 -8.210456019627812574e-02 1.325016330601283654e+00 2.588538193632545226e-01
1.997099971708683919e+00 -5.214697642615427897e-01 1.167001056445867400e-02 -5.214697642615427897e-01 4.060514734225304068e+00 9.157861131522264664e-01 1.167001056445867400e-02 9.157861131522264664e-01 3.304730641284069126e+00
3.595825407589135825e+00 -8.322937602477052943e-01 1.658592401507513747e-01 -8.322937602477052943e-01 3.293694549615673761e+00 8.612929087562568031e-02 1.658592401507513747e-01 8.612929087562568031e-02 5.699398269923258376e+00
-3.859107020727913007e+00 -7.090182977163419498e-01 2.595262426966091773e-01 -7.090182977163419498e-01 -2.759498617667653253e+00 -3.035408717903796960e-01 2.595262426966091773e-01 -3.035408717903796960e-01 1.661066227425740172e+00
-9.957366524325388824e+00 -5.053260274274253838e-01 4.403188219117670221e-01 -5.053260274274253838e-01 -8.154707221090376379e+00 -3.376134761267297058e-01 4.403188219117670221e-01 -3.376134761267297058e-01 -2.587456011006260326e+00
-1.078648117718255861e+01 -3.046090146507461904e-01 4.809019925051318811e-01 -3.046090146507461904e-01 -9.975951576883614891e+00 -1.737413952291815000e-01 4.809019925051318811e-01 -1.737413952291815000e-01 -3.411815864353894501e+00
-6.883209915229248743e+00 -1.135478769600244547e-01 3.352220423529610471e-01 -1.135478769600244547e-01 -7.040047552684363552e+00 5.881440724427695194e-02 3.352220423529610471e-01 5.881440724427695194e-02 1.369156643424927600e+00
-2.929417495390377102e+00 -3.217559962928459028e-01 1.166197577408223524e-01 -3.217559962928459028e-01 -3.983958143272959607e+00 1.741830798999344510e-01 1.166197577408223524e-01 1.741830798999344510e-01 6.539464796933909696e+00
-4.165261605097577480e+00 -8.572467676802814074e-01 9.347840099725764074e-02 -8.572467676802814074e-01 -5.208412389256502628e+00 2.971251870781710935e-01 9.347840099725764074e-02 2.971251870781710935e-01 5.622845075599030906e+00
-6.557606812680567110e+00 -9.131979317852719769e-01 3.870324461985749642e-01 -9.131979317852719769e-01 -6.466058047018315769e+00 5.233902300371345850e-01 3.870324461985749642e-01 5.233902300371345850e-01 5.415753655513964482e+00
-5.228593698728484895e+00 -8.558422192902251924e-01 7.409808571153506662e-01 -8.558422192902251924e-01 -3.680406825538206306e+00 8.286339852040506271e-01 7.409808571153506662e-01 8.286339852040506271e-01 8.792168499411415539e+00
-9.957683784566844221e-01 -7.400099869661528329e-01 1.117015701542351858e+00 -7.400099869661528329e-01 2.199399617595467760e-01 1.072714999187163176e+00 1.117015701542351858e+00 1.072714999187163176e+00 1.303046534648252752e+01
1.236976300567686149e+00 -2.757588128943483374e-01 1.005029483084850961e+00 -2.757588128943483374e-01 2.847597589227421899e+00 1.003229180285734046e+00 1.005029483084850961e+00 1.003229180285734046e+00 1.068939057320910990e+01
-4.205231690456248672e-01 -1.539257874276689364e-02 9.635661374521150568e-01 -1.539257874276689364e-02 -2.203798684048356715e-02 6.922376545494900446e-01 9.635661374521150568e-01 6.922376545494900446e-01 4.687504211746950311e+00
-2.753433902684137458e+00 3.533649166230666550e-02 1.183637895741624924e+00 3.533649166230666550e-02 -5.491460464245601081e+00 7.120019590093727979e-01 1.183637895741624924e+00 7.120019590093727979e-01 2.124513081862080099e+00
-4.915698747814368552e+00 -6.941784331682640530e-02 1.252156147824472487e+00 -6.941784331682640530e-02 -7.032429411507894024e+00 8.616003047999203357e-01 1.252156147824472487e+00 8.616003047999203357e-01 3.154421933492472796e+00
-4.472690419510520599e+00 -3.596378884614624405e-01 1.008658928719518233e+00 -3.596378884614624405e-01 -3.830928307538624900e+00 8.497909662525682251e-01 1.008658928719518233e+00 8.497909662525682251e-01 7.289413128920790186e+00
-2.704456100939605534e+00 -8.266679802423367862e-01 6.568118214123194187e-01 -8.266679802423367862e-01 1.485511070292332647e+00 6.692884888527897980e-01 6.568118214123194187e-01 6.692884888527897980e-01 8.078871768215361016e+00
-4.771215606872651449e+00 -1.097624018248790190e+00 9.207762410554031218e-01 -1.097624018248790190e+00 -9.134282628270347093e-01 3.042830181420966840e-01 9.207762410554031218e-01 3.042830181420966840e-01 2.320475609275088669e+00
-7.247888551789466227e+00 -9.756826261796077704e-01 1.640988392760640124e+00 -9.756826261796077704e-01 -8.017676116093882754e+00 4.127985161847725903e-01 1.640988392760640124e+00 4.127985161847725903e-01 -1.601346591137698283e+00
-3.548632588372641727e+00 -6.657697457123450402e-01 2.334217715712845642e+00 -6.657697457123450402e-01 -9.503998733939315713e+00 3.814361303302043482e-01 2.334217715712845642e+00 3.814361303302043482e-01 1.972498329046415755e+00
7.614730340615571968e-01 -3.285324655854740539e-01 1.815921032582504591e+00 -3.285324655854740539e-01 -7.020139268227059581e+00 1.129514247811454625e-01 1.815921032582504591e+00 1.129514247811454625e-01 6.577437395311462431e+00
8.060102258995129887e-01 -2.022782892581566350e-01 9.197490904307166204e-01 -2.022782892581566350e-01 -4.003998035037741765e+00 -1.769986381257359076e-01 9.197490904307166204e-01 -1.769986381257359076e-01 6.335029024980514123e+00
-5.459977850034895219e+00 -4.618658073337709481e-03 8.087344592311689340e-01 -4.618658073337709481e-03 -4.772383825528777379e+00 6.475802628709978470e-02 8.087344592311689340e-01 6.475802628709978470e-02 1.413838344513913103e+00
-1.175250011898979707e+01 1.476313305226394090e-01 7.650981260235522052e-01 1.476313305226394090e-01 -3.636600929965581930e+00 5.419578962950366563e-01 7.650981260235522052e-01 5.419578962950366563e-01 -2.559919178655416960e+00
-1.177290432191259484e+01 -1.982854577773362006e-02 2.650820059057112932e-01 -1.982854577773362006e-02 2.046732894311624751e+00 7.117403924443940211e-01 2.650820059057112932e-01 7.117403924443940211e-01 -1.435268493210966723e+00
-9.389449767480485320e+00 -6.155821564552643732e-01 -1.948890194521495089e-01 -6.155821564552643732e-01 4.312876716856433923e+00 2.054608127237849968e-01 -1.948890194521495089e-01 2.054608127237849968e-01 -6.335631986110957792e-01
-5.231195335935925783e+00 -1.301920014510818069e+00 -2.232290659536937394e-01 -1.301920014510818069e+00 2.791111277874275487e+00 -4.501280848020534631e-01 -2.232290659536937394e-01 -4.501280848020534631e-01 -5.469464522404481333e-01
-1.899001389082247471e+00 -1.083812671246186188e+00 -1.081122574303696945e-02 -1.083812671246186188e+00 1.043751916446392425e+00 -7.562685103767090578e-01 -1.081122574303696945e-02 -7.562685103767090578e-01 1.459479524918946003e-01
-5.066779092033045773e-01 -7.158323621701262462e-01 4.242050763448713957e-02 -7.158323621701262462e-01 6.684498336169544253e-01 -7.511639483380730953e-01 4.242050763448713957e-02 -7.511639483380730953e-01 9.830169172559140023e-01
2.588315898276390303e+00 -1.316988535217962664e+00 -1.423450216423191583e-01 -1.316988535217962664e+00 2.765975275894906993e+00 -1.532957952340381902e-01 -1.423450216423191583e-01 -1.532957952340381902e-01 6.027209812962016633e-01
4.807652280571406145e+00 -2.488931818345432312e+00 -1.321188768621549547e-01 -2.488931818345432312e+00 5.172493470488853440e+00 7.143279788917908935e-01 -1.321188768621549547e-01 7.143279788917908935e-01 1.666661058897588088e+00
4.217519381990149974e+00 -3.168099377218836832e+00 -1.732204459126370222e-01 -3.168099377218836832e+00 4.054850711303678246e+00 6.653297296790705584e-01 -1.732204459126370222e-01 6.653297296790705584e-01 2.252401103136300264e+00
-2.343245039353068382e+00 -2.293351715228961751e+00 -3.487330859029126873e-01 -2.293351715228961751e+00 1.535735861524768590e-02 -3.496929517598636877e-02 -3.487330859029126873e-01 -3.496929517598636877e-02 -5.823197540268125749e-01
-7.002929167366202634e+00 -6.110126555752882771e-01 -4.168759487340622516e-01 -6.110126555752882771e-01 -1.780032339944274788e+00 -1.447761817491564906e-01 -4.168759487340622516e-01 -1.447761817491564906e-01 -1.555553233981619154e-01
-8.722306085958130950e+00 2.970018844556731458e-03 1.173476658326232450e-02 2.970018844556731458e-03 -4.727672607188512899e+00 1.864676485608862955e-01 1.173476658326232450e-02 1.864676485608862955e-01 -9.143038909436360662e-01
-9.761804353048228577e+00 -9.008868538096795886e-01 4.642133557861103377e-01 -9.008868538096795886e-01 -8.596642524921064066e+00 4.621660381808094346e-03 4.642133557861103377e-01 4.621660381808094346e-03 -7.773986395821395057e+00
-6.311694106584485375e+00 -1.921651976610073254e+00 5.910657554012469506e-01 -1.921651976610073254e+00 -9.277374767806700007e+00 -2.815777097120886752e-01 5.910657554012469506e-01 -2.815777097120886752e-01 -1.045842279317763790e+01
-3.884530309465667131e+00 -1.760359283892692472e+00 3.935665813852553541e-01 -1.760359283892692472e+00 -8.387415543758638847e+00 -2.162308412943902136e-01 3.935665813852553541e-01 -2.162308412943902136e-01 -8.209282009327754537e+00
-1.441871020866684283e+00 -1.194025087280989217e+00 -2.800865333525683343e-01 -1.194025087280989217e+00 -5.048156595765060040e+00 1.232394120749743943e-01 -2.800865333525683343e-01 1.232394120749743943e-01 -6.033129341579014593e+00
4.051418211839977523e+00 -8.117833351160435029e-01 -8.151074207413655515e-01 -8.117833351160435029e-01 4.381274668884114654e+00 5.283667979334303322e-01 -8.151074207413655515e-01 5.283667979334303322e-01 -5.048030174424236183e-01
1.028656430446591763e+01 -2.301870773645099677e-02 -6.133211425347915302e-01 -2.301870773645099677e-02 1.232118051563906214e+01 6.771166311506291446e-01 -6.133211425347915302e-01 6.771166311506291446e-01 5.001547724559884500e+00
7.560274119814179627e+00 -1.298628649733327978e-01 -3.639966810049856116e-01 -1.298628649733327978e-01 6.421246435042004208e+00 4.614130911761662457e-01 -3.639966810049856116e-01 4.614130911761662457e-01 3.239778878919931770e+00
2.762140769622430714e+00 -1.614484090610383282e-01 -8.090296598925859062e-01 -1.614484090610383282e-01 -1.685610058044489379e-01 5.791409945301482232e-01 -8.090296598925859062e-01 5.791409945301482232e-01 1.869507041668736713e+00
1.746039767706892842e+00 1.378308346611911150e-01 -1.434713957505201254e+00 1.378308346611911150e-01 -1.282282389196834349e-01 1.031217192439740193e+00 -1.434713957505201254e+00 1.031217192439740193e+00 4.153045243272541320e+00
1.162820642487196965e+00 2.521487799233415039e-01 -1.449320725855574032e+00 2.521487799233415039e-01 1.207349375024676874e+00 7.799637086232177330e-01 -1.449320725855574032e+00 7.799637086232177330e-01 3.365017257808425644e+00
-1.058555577430819739e+00 2.573717609776519644e-01 -6.876593125280602292e-01 2.573717609776519644e-01 1.970068803503959076e+00 6.271854979348381320e-01 -6.876593125280602292e-01 6.271854979348381320e-01 7.198393896768254807e-01
-4.731515161489231680e+00 -2.240484175088154617e-02 -2.464440724450124021e-01 -2.240484175088154617e-02 1.621907546863794458e+00 1.299517204664076830e+00 -2.464440724450124021e-01 1.299517204664076830e+00 -2.688597630715216180e+00
-8.459428546621735379e+00 -6.655747633913902117e-01 -1.082433932130768967e-01 -6.655747633913902117e-01 -4.544526517211800787e+00 2.029424480518047247e+00 -1.082433932130768967e-01 2.029424480518047247e+00 -7.471479574757916353e+00
-1.035303486712684240e+01 -9.818084687851114101e-01 -1.672766413047547251e-01 -9.818084687851114101e-01 -1.058132583668262683e+01 2.389420845662518111e+00 -1.672766413047547251e-01 2.389420845662518111e+00 -1.006260540625893363e+01
-8.568460724485714053e+00 -9.774864111201967409e-01 -5.046900298742059698e-01 -9.774864111201967409e-01 -1.095494764951258126e+01 2.587022915955522695e+00 -5.046900298742059698e-01 2.587022915955522695e+00 -7.352502883412819656e+00
-3.795508675396014997e+00 -8.893475767015490696e-01 -6.315642455106703634e-01 -8.893475767015490696e-01 -6.976582966587782764e+00 2.436741954652867914e+00 -6.315642455106703634e-01 2.436741954652867914e+00 -9.078037884955039161e-01
1.420452165563590885e+00 -6.680697550448311262e-01 -7.275133334019829867e-01 -6.680697550448311262e-01 -1.695067103736862535e+00 1.568113213369914272e+00 -7.275133334019829867e-01 1.568113213369914272e+00 2.384903017259230928e+00
5.938194778145788000e+00 -1.730388548644424263e-01 -1.073183338169965362e+00 -1.730388548644424263e-01 3.910190574406381625e+00 1.057560928309166037e+00 -1.073183338169965362e+00 1.057560928309166037e+00 1.529443616762537150e+00
7.570755436996877030e+00 1.650332227251582462e-01 -1.387308688186920991e+00 1.650332227251582462e-01 6.324191601516767847e+00 1.611436771341627994e+00 -1.387308688186920991e+00 1.611436771341627994e+00 6.109712994108209561e-01
6.392394790213998590e+00 4.516325188319525452e-02 -1.327542155634042098e+00 4.516325188319525452e-02 5.712754403871955766e+00 2.116078313362410590e+00 -1.327542155634042098e+00 2.116078313362410590e+00 1.065186734079522024e+00
4.299477335237896547e+00 -3.496984957022499785e-01 -1.105311848638638628e+00 -3.496984957022499785e-01 4.110938729447721762e+00 1.885696636097965451e+00 -1.105311848638638628e+00 1.885696636097965451e+00 1.825398567715581066e+00
1.498829184392174829e+00 -9.692974316497797727e-01 -1.218880757390852443e+00 -9.692974316497797727e-01 1.578669888901426344e+00 1.447150832082900518e+00 -1.218880757390852443e+00 1.447150832082900518e+00 3.049785197054432739e+00
-8.650800769567474902e-01 -1.743738164597365969e+00 -1.607367075621470853e+00 -1.743738164597365969e+00 -3.533503705134117268e-01 9.945748073447588933e-01 -1.607367075621470853e+00 9.945748073447588933e-01 4.127440195538293999e+00
-3.198007449736533836e+00 -2.337300634105504926e+00 -2.018017421460591709e+00 -2.337300634105504926e+00 -1.232143243112922004e+00 7.727912506824836658e-01 -2.018017421460591709e+00 7.727912506824836658e-01 -7.493137241861101971e-01
-5.313484578617029719e+00 -2.422760480387509574e+00 -2.184430187007968538e+00 -2.422760480387509574e+00 -2.822216372407885476e+00 8.072104732706809616e-01 -2.184430187007968538e+00 8.072104732706809616e-01 -6.675913754327805982e+00
-6.002594315015584492e+00 -1.851869731775384054e+00 -2.135028922784290906e+00 -1.851869731775384054e+00 -4.496399960299846121e+00 6.829213048103843775e-01 -2.135028922784290906e+00 6.829213048103843775e-01 -9.536155390793608078e+00
-5.615137180001709361e+00 -1.311116058767267889e+00 -1.950859567320990973e+00 -1.311116058767267889e+00 -5.807688815899622270e+00 6.974942483213657507e-01 -1.950859567320990973e+00 6.974942483213657507e-01 -9.292627664344944804e+00
-3.415767029072906524e+00 -1.296625499807392057e+00 -1.738788962695382523e+00 -1.296625499807392057e+00 -6.515929476290992284e+00 1.152130629457457145e+00 -1.738788962695382523e+00 1.152130629457457145e+00 -5.773827432896270651e+00
-7.113195896206186974e-01 -1.225494407066938685e+00 -1.503245336854534653e+00 -1.225494407066938685e+00 -3.455525806645085574e+00 1.525759965713926913e+00 -1.503245336854534653e+00 1.525759965713926913e+00 -1.139401135424084055e+00
1.445510245345752898e+00 -9.788266566581087513e-01 -9.025925278663069484e-01 -9.788266566581087513e-01 1.195603294877799039e+00 1.562759195843146820e+00 -9.025925278663069484e-01 1.562759195843146820e+00 3.308624908355838556e+00
3.043097037775245539e+00 -7.509534155538641897e-01 -3.972142230841554378e-01 -7.509534155538641897e-01 2.907403163240710242e+00 9.031981373141509950e-01 -3.972142230841554378e-01 9.031981373141509950e-01 7.086568121548234345e+00
2.355663265368573178e+00 -6.476226929053306991e-01 -7.320710473234827154e-01 -6.476226929053306991e-01 -1.190534170833803529e-01 3.170520368367726327e-01 -7.320710473234827154e-01 3.170520368367726327e-01 4.958804647377482944e+00
6.561548086118454970e-01 -6.604582788504066437e-01 -1.308536438816733982e+00 -6.604582788504066437e-01 -3.164859551577834829e+00 -8.380678391120070791e-02 -1.308536438816733982e+00 -8.380678391120070791e-02 -8.622135384206970343e-01
9.612770136495085715e-01 -5.492800290045548595e-01 -1.501435533370088837e+00 -5.492800290045548595e-01 -2.227701001601340991e+00 -4.306677246475856258e-01 -1.501435533370088837e+00 -4.306677246475856258e-01 -1.866010726264335284e+00
2.995736025495474575e+00 -1.747822234079013937e-01 -7.844871944252389540e-01 -1.747822234079013937e-01 8.322063492553353203e-01 -5.981801362176332182e-01 -7.844871944252389540e-01 -5.981801362176332182e-01 1.367135021334950462e+00
1.480513968693743854e+00 2.873282710976461374e-01 -2.680357000591065963e-01 2.873282710976461374e-01 6.125089238013210480e-01 -7.474522392201784493e-01 -2.680357000591065963e-01 -7.474522392201784493e-01 3.767650762575560641e+00
-3.089176808579584765e+00 5.639631171286936251e-01 -3.267440331813113996e-01 5.639631171286936251e-01 -4.593591665370674093e+00 -7.901675279241605621e-01 -3.267440331813113996e-01 -7.901675279241605621e-01 3.476905544192345765e+00
-5.555427130733463947e+00 8.086901255631834262e-01 -2.972968192434037316e-01 8.086901255631834262e-01 -8.108777031345782760e+00 -5.006624181963600373e-01 -2.972968192434037316e-01 -5.006624181963600373e-01 1.001830315283727790e+00
-6.097715103371646350e+00 9.610740273806899214e-01 -2.818069959604983452e-02 9.610740273806899214e-01 -8.602288223004686429e+00 -7.105533230343701323e-01 -2.818069959604983452e-02 -7.105533230343701323e-01 -1.663063350517258510e+00
-4.455579864584484184e+00 1.087590066105927677e+00 5.096106008551443134e-01 1.087590066105927677e+00 -5.587032639291433789e+00 -1.213119179692007776e+00 5.096106008551443134e-01 -1.213119179692007776e+00 -2.299451786725673408e+00
-1.427341362551737269e+00 1.352294700572868269e+00 9.060468473150836699e-01 1.352294700572868269e+00 -8.027825331441386103e-01 -9.176918532272835272e-01 9.060468473150836699e-01 -9.176918532272835272e-01 9.655325386188434722e-01
2.516719927022577963e+00 1.771821346907969330e+00 4.877106379818986759e-01 1.771821346907969330e+00 6.587953511942038487e-01 -7.487216816032340461e-01 4.877106379818986759e-01 -7.487216816032340461e-01 6.043128875094502028e+00
3.169526428628080428e+00 1.532228862684514636e+00 3.342272859043962652e-01 1.532228862684514636e+00 3.828069473275675927e-01 -1.357352938592197855e+00 3.342272859043962652e-01 -1.357352938592197855e+00 7.283979619532511052e+00
1.169066532100261568e+00 4.488394560715566195e-01 8.503877092252337677e-01 4.488394560715566195e-01 1.405643251759237655e+00 -2.065124763873452896e+00 8.503877092252337677e-01 -2.065124763873452896e+00 7.557489599995411922e+00
-1.152181196219313586e+00 1.121525571340717120e-01 1.077678189479010396e+00 1.121525571340717120e-01 3.630742670080229217e+00 -2.387062781451624982e+00 1.077678189479010396e+00 -2.387062781451624982e+00 7.703249750466406809e+00
-5.032274120234465187e+00 6.668669780136496916e-01 1.042335979715267369e+00 6.668669780136496916e-01 -6.448726853311986806e-01 -1.686859161553459607e+00 1.042335979715267369e+00 -1.686859161553459607e+00 3.167135646793307058e-01
-8.766261826455878037e+00 8.041373714415742668e-01 3.863362693753983890e-01 8.041373714415742668e-01 -6.917577502769664655e+00 -9.816462697701361373e-01 3.863362693753983890e-01 -9.816462697701361373e-01 -8.768768506083857162e+00
-1.084145747010547112e+01 4.344825840973301490e-01 -5.070032100140672154e-02 4.344825840973301490e-01 -7.704942552202269646e+00 -8.619517855128868700e-01 -5.070032100140672154e-02 -8.619517855128868700e-01 -1.174712797613742055e+01
-8.285646856752590494e+00 -3.906224045488706359e-02 5.574712128893588581e-01 -3.906224045488706359e-02 -5.969490404319349075e+00 -1.048791144901455530e+00 5.574712128893588581e-01 -1.048791144901455530e+00 -9.394828710525279902e+00
-1.046134756342284033e+00 -6.962366706512375103e-01 6.999283004263677777e-01 -6.962366706512375103e-01 -2.998627589146421357e+00 -1.254357966876493702e+00 6.999283004263677777e-01 -1.254357966876493702e+00 -6.470997948640327735e+00
4.878535533263708146e+00 -1.322534604327327834e+00 3.014048090583812400e-01 -1.322534604327327834e+00 3.345877826182336312e-01 -1.173089174017760472e+00 3.014048090583812400e-01 -1.173089174017760472e+00 -8.410919527395586126e-01
4.497401419498728181e+00 -1.924138533586051247e+00 -2.768281405262799921e-02 -1.924138533586051247e+00 1.579201285846641545e+00 -1.413500214468136784e+00 -2.768281405262799921e-02 -1.413500214468136784e+00 4.946448978214558423e+00
1.456521479727811708e-01 -1.522553967853295553e+00 4.294675056606543917e-01 -1.522553967853295553e+00 2.586518131363699347e+00 -1.323489483805313505e+00 4.294675056606543917e-01 -1.323489483805313505e+00 4.440334796334288292e+00
-1.956922193414530664e+00 -9.600309591959290678e-01 1.228157696148332478e+00 -9.600309591959290678e-01 1.919628619600139308e+00 -1.395194287870226590e+00 1.228157696148332478e+00 -1.395194287870226590e+00 4.615745978973572861e+00
-1.491058169175217551e-01 -1.089491480440977655e+00 1.179090778926351391e+00 -1.089491480440977655e+00 3.128101385883574892e+00 -1.078214547671876522e+00 1.179090778926351391e+00 -1.078214547671876522e+00 9.609788715760426925e+00
1.391836839913973556e+00 -1.243436434223383680e+00 8.446265831345509678e-01 -1.243436434223383680e+00 1.838364680815197660e+00 -6.071885899384187324e-01 8.446265831345509678e-01 -6.071885899384187324e-01 7.912954484211864425e+00
-3.268024626894271978e-01 -8.225063275033219767e-01 8.080257661270398017e-01 -8.225063275033219767e-01 -3.851469683012088474e+00 -5.895818065757991722e-01 8.080257661270398017e-01 -5.895818065757991722e-01 -1.078730142104503020e+00
-7.498336057892787565e+00 -9.545692721082279508e-01 5.588921180277512946e-01 -9.545692721082279508e-01 -7.442729889075798688e+00 -4.985815879322376132e-01 5.588921180277512946e-01 -4.985815879322376132e-01 -6.433964135173934729e+00
-1.177707354448375909e+01 -1.726235925010902950e+00 1.787539432473493062e-01 -1.726235925010902950e+00 -7.216429379219041707e+00 -2.576355716169588805e-01 1.787539432473493062e-01 -2.576355716169588805e-01 -9.391924320010549110e+00
-1.162348324090492824e+01 -1.765741597557261899e+00 -2.947002008816763108e-01 -1.765741597557261899e+00 -3.776774617713916093e+00 1.485405745870389989e-02 -2.947002008816763108e-01 1.485405745870389989e-02 -6.995577113113722767e+00
-7.696380371316040581e+00 -8.111525572093585268e-01 -6.252116546359534066e-01 -8.111525572093585268e-01 -8.907054395794926638e-01 2.247001303164750385e-01 -6.252116546359534066e-01 2.247001303164750385e-01 -1.094717632626238002e+00
-3.971786066047586328e+00 2.888271538910069589e-02 -7.713294222015575352e-01 2.888271538910069589e-02 -1.403827599491773714e+00 6.614254560848310538e-01 -7.713294222015575352e-01 6.614254560848310538e-01 1.790971091394981451e+00
-4.092545782017089628e+00 4.545591072317310966e-01 -7.057144960975630932e-01 4.545591072317310966e-01 -4.352191413402274556e+00 9.288841661972108144e-01 -7.057144960975630932e-01 9.288841661972108144e-01 5.231057852038247802e-01
-3.052776413841143288e+00 7.798940815657312564e-01 -4.792848765593279992e-01 7.798940815657312564e-01 -3.581891765218522927e+00 7.580081717291773380e-01 -4.792848765593279992e-01 7.580081717291773380e-01 -2.958004170254188714e-01
2.869849015568634587e-01 9.109869753310586571e-01 -4.145016318491409613e-01 9.109869753310586571e-01 1.236876164272167899e-01 6.556291270352209155e-01 -4.145016318491409613e-01 6.556291270352209155e-01 3.249448189830805411e+00
4.265552517780256458e+00 6.797276289373719305e-01 -4.069359665879863641e-01 6.797276289373719305e-01 2.922415360953869889e+00 2.519173044287986163e-01 -4.069359665879863641e-01 2.519173044287986163e-01 4.622597454496136571e+00
6.038972254723664612e+00 4.914147811634745344e-01 -2.243758602003130265e-01 4.914147811634745344e-01 4.350928345276785514e+00 -1.837437047699292947e-01 -2.243758602003130265e-01 -1.837437047699292947e-01 3.026150157984811351e+00
4.963081667866847901e+00 7.985964006073419386e-01 1.001366861586527324e-01 7.985964006073419386e-01 5.031145390584012667e+00 -8.962479873849890644e-02 1.001366861586527324e-01 -8.962479873849890644e-02 1.557340475764455112e+00
2.191848088112474446e+00 1.332666315952779623e+00 3.452883893932656156e-01 1.332666315952779623e+00 5.055407050819987091e+00 -9.006532593098529049e-02 3.452883893932656156e-01 -9.006532593098529049e-02 -1.056229665114105432e+00
2.740604243933106865e-01 1.731386754516591520e+00 3.946085457357952908e-01 1.731386754516591520e+00 3.507076576451103378e+00 -2.318692909194255969e-01 3.946085457357952908e-01 -2.318692909194255969e-01 -2.392356706880732986e+00
-8.163596636422791875e-01 2.020580620094959201e+00 2.050393953496839825e-02 2.020580620094959201e+00 6.237863938039894807e-01 -1.660538350299707033e-01 2.050393953496839825e-02 -1.660538350299707033e-01 -2.406220656526340651e+00
-3.226365752061316261e+00 2.207013630939908655e+00 -4.871760372916932869e-01 2.207013630939908655e+00 -1.527226839255247270e+00 2.047081713794229874e-01 -4.871760372916932869e-01 2.047081713794229874e-01 -2.947965777217020467e+00
-3.966827488669121049e+00 1.781313843459306545e+00 -3.770960564805801996e-01 1.781313843459306545e+00 -1.282212061063707331e+00 4.859048917819519531e-01 -3.770960564805801996e-01 4.859048917819519531e-01 -5.080564060092432221e+00