9.189664701583648565e+00 0.000000000000000000e+00 0.000000000000000000e+00 -6.333963539798487252e-02 7.595384802442842087e+00 0.000000000000000000e+00 -8.525950922059032100e-02 2.559985263953919871e-02 7.576594567911090650e+00
9.195029250333689674e+00 0.000000000000000000e+00 0.000000000000000000e+00 -6.333963539798487252e-02 7.599818676079129531e+00 0.000000000000000000e+00 -8.525950922059032100e-02 2.559985263953919871e-02 7.581017472580519723e+00
9.206453096278593762e+00 0.000000000000000000e+00 0.000000000000000000e+00 -6.333963539798487252e-02 7.609260642537328145e+00 0.000000000000000000e+00 -8.525950922059032100e-02 2.559985263953919871e-02 7.590436080543176089e+00
9.222152623983385311e+00 0.000000000000000000e+00 0.000000000000000000e+00 -6.333963539798487252e-02 7.622236519026275303e+00 0.000000000000000000e+00 -8.525950922059032100e-02 2.559985263953919871e-02 7.603379855989905955e+00
9.243169048336516980e+00 0.000000000000000000e+00 0.000000000000000000e+00 -6.333963539798487252e-02 7.639606884030223810e+00 0.000000000000000000e+00 -8.525950922059032100e-02 2.559985263953919871e-02 7.620707248420217184e+00
9.268847678420589986e+00 0.000000000000000000e+00 0.000000000000000000e+00 -6.333963539798487252e-02 7.660830626464970372e+00 0.000000000000000000e+00 -8.525950922059032100e-02 2.559985263953919871e-02 7.641878485405202426e+00
9.293865021589228448e+00 0.000000000000000000e+00 0.000000000000000000e+00 -6.333963539798487252e-02 7.681507806130898786e+00 0.000000000000000000e+00 -8.525950922059032100e-02 2.559985263953919871e-02 7.662504511762583626e+00
9.313786044239824591e+00 0.000000000000000000e+00 0.000000000000000000e+00 -6.333963539798487252e-02 7.697972806497397791e+00 0.000000000000000000e+00 -8.525950922059032100e-02 2.559985263953919871e-02 7.678928779339552868e+00
9.327871549690412323e+00 0.000000000000000000e+00 0.000000000000000000e+00 -6.333963539798487252e-02 7.709614671300318633e+00 0.000000000000000000e+00 -8.525950922059032100e-02 2.559985263953919871e-02 7.690541843314259829e+00
9.335130596312154694e+00 0.000000000000000000e+00 0.000000000000000000e+00 -6.333963539798487252e-02 7.715614373594225306e+00 0.000000000000000000e+00 -8.525950922059032100e-02 2.559985263953919871e-02 7.696526702934606057e+00
9.331367048061272484e+00 0.000000000000000000e+00 0.000000000000000000e+00 -6.333963539798487252e-02 7.712503748982917351e+00 0.000000000000000000e+00 -8.525950922059032100e-02 2.559985263953919871e-02 7.693423773703001345e+00
9.315667439748944290e+00 0.000000000000000000e+00 0.000000000000000000e+00 -6.333963539798487252e-02 7.699527805872353525e+00 0.000000000000000000e+00 -8.525950922059032100e-02 2.559985263953919871e-02 7.680479931798652515e+00
9.293519223075749736e+00 0.000000000000000000e+00 0.000000000000000000e+00 -6.333963539798487252e-02 7.681221998883090762e+00 0.000000000000000000e+00 -8.525950922059032100e-02 2.559985263953919871e-02 7.662219411574706207e+00
9.271559215588164093e+00 0.000000000000000000e+00 0.000000000000000000e+00 -6.333963539798487252e-02 7.663071749385392373e+00 0.000000000000000000e+00 -8.525950922059032100e-02 2.559985263953919871e-02 7.644114064007538900e+00
9.253304770395249790e+00 0.000000000000000000e+00 0.000000000000000000e+00 -6.333963539798487252e-02 7.647984198304880188e+00 0.000000000000000000e+00 -8.525950922059032100e-02 2.559985263953919871e-02 7.629063838044171320e+00
9.239608297983268770e+00 0.000000000000000000e+00 0.000000000000000000e+00 -6.333963539798487252e-02 7.636663874682072084e+00 0.000000000000000000e+00 -8.525950922059032100e-02 2.559985263953919871e-02 7.617771519788155921e+00
9.230603856737543467e+00 0.000000000000000000e+00 0.000000000000000000e+00 -6.333963539798487252e-02 7.629221579625163230e+00 0.000000000000000000e+00 -8.525950922059032100e-02 2.559985263953919871e-02 7.610347636236265423e+00
9.226435232948398735e+00 0.000000000000000000e+00 0.000000000000000000e+00 -6.333963539798487252e-02 7.625776154487067693e+00 0.000000000000000000e+00 -8.525950922059032100e-02 2.559985263953919871e-02 7.606910734741104463e+00
9.229486110501627039e+00 0.000000000000000000e+00 0.000000000000000000e+00 -6.333963539798487252e-02 7.628297746922022782e+00 0.000000000000000000e+00 -8.525950922059032100e-02 2.559985263953919871e-02 7.609426089004968752e+00
9.238591890225018588e+00 0.000000000000000000e+00 0.000000000000000000e+00 -6.333963539798487252e-02 7.635823799631796582e+00 0.000000000000000000e+00 -8.525950922059032100e-02 2.559985263953919871e-02 7.616933523000917639e+00
9.250934587311736124e+00 0.000000000000000000e+00 0.000000000000000000e+00 -6.333963539798487252e-02 7.646025209250410626e+00 0.000000000000000000e+00 -8.525950922059032100e-02 2.559985263953919871e-02 7.627109695334805650e+00
9.268080969867996899e+00 0.000000000000000000e+00 0.000000000000000000e+00 -6.333963539798487252e-02 7.660196931256711750e+00 0.000000000000000000e+00 -8.525950922059032100e-02 2.559985263953919871e-02 7.641246357896918084e+00
9.292435355945814379e+00 0.000000000000000000e+00 0.000000000000000000e+00 -6.333963539798487252e-02 7.680326167729765174e+00 0.000000000000000000e+00 -8.525950922059032100e-02 2.559985263953919871e-02 7.661325796619622430e+00
9.321902100903358246e+00 0.000000000000000000e+00 0.000000000000000000e+00 -6.333963539798487252e-02 7.704680839428940331e+00 0.000000000000000000e+00 -8.525950922059032100e-02 2.559985263953919871e-02 7.685620217257620901e+00
9.351790080525146820e+00 0.000000000000000000e+00 0.000000000000000000e+00 -6.333963539798487252e-02 7.729383667395024027e+00 0.000000000000000000e+00 -8.525950922059032100e-02 2.559985263953919871e-02 7.710261932858486489e+00
9.377156157868366648e+00 0.000000000000000000e+00 0.000000000000000000e+00 -6.333963539798487252e-02 7.750349080672791935e+00 0.000000000000000000e+00 -8.525950922059032100e-02 2.559985263953919871e-02 7.731175479766812408e+00
9.394998592958938133e+00 0.000000000000000000e+00 0.000000000000000000e+00 -6.333963539798487252e-02 7.765096099712509137e+00 0.000000000000000000e+00 -8.525950922059032100e-02 2.559985263953919871e-02 7.745886016132534913e+00
9.405726117559074950e+00 0.000000000000000000e+00 0.000000000000000000e+00 -6.333963539798487252e-02 7.773962546962568609e+00 0.000000000000000000e+00 -8.525950922059032100e-02 2.559985263953919871e-02 7.754730528664857125e+00
9.411996190700646636e+00 0.000000000000000000e+00 0.000000000000000000e+00 -6.333963539798487252e-02 7.779144849014676844e+00 0.000000000000000000e+00 -8.525950922059032100e-02 2.559985263953919871e-02 7.759900010211765675e+00
9.417139502698192999e+00 0.000000000000000000e+00 0.000000000000000000e+00 -6.333963539798487252e-02 7.783395867419535818e+00 0.000000000000000000e+00 -8.525950922059032100e-02 2.559985263953919871e-02 7.764140512015159423e+00
9.421009628929581936e+00 0.000000000000000000e+00 0.000000000000000000e+00 -6.333963539798487252e-02 7.786594580203781923e+00 0.000000000000000000e+00 -8.525950922059032100e-02 2.559985263953919871e-02 7.767331311498956836e+00
9.419605891590917324e+00 0.000000000000000000e+00 0.000000000000000000e+00 -6.333963539798487252e-02 7.785434371905290085e+00 0.000000000000000000e+00 -8.525950922059032100e-02 2.559985263953919871e-02 7.766173973440943179e+00
9.412586019821413075e+00 0.000000000000000000e+00 0.000000000000000000e+00 -6.333963539798487252e-02 7.779632350930469009e+00 0.000000000000000000e+00 -8.525950922059032100e-02 2.559985263953919871e-02 7.760386306095499620e+00
9.402093939017989399e+00 0.000000000000000000e+00 0.000000000000000000e+00 -6.333963539798487252e-02 7.770960501230248063e+00 0.000000000000000000e+00 -8.525950922059032100e-02 2.559985263953919871e-02 7.751735909697785587e+00
9.387106407931730345e+00 0.000000000000000000e+00 0.000000000000000000e+00 -6.333963539798487252e-02 7.758573099781861160e+00 0.000000000000000000e+00 -8.525950922059032100e-02 2.559985263953919871e-02 7.739379153461995564e+00
9.364315581075594253e+00 0.000000000000000000e+00 0.000000000000000000e+00 -6.333963539798487252e-02 7.739736166600920342e+00 0.000000000000000000e+00 -8.525950922059032100e-02 2.559985263953919871e-02 7.720588820999807922e+00
9.335851164180349215e+00 0.000000000000000000e+00 0.000000000000000000e+00 -6.333963539798487252e-02 7.716209932890006229e+00 0.000000000000000000e+00 -8.525950922059032100e-02 2.559985263953919871e-02 7.697120788875867703e+00
9.308627489026020996e+00 0.000000000000000000e+00 0.000000000000000000e+00 -6.333963539798487252e-02 7.693709189365061540e+00 0.000000000000000000e+00 -8.525950922059032100e-02 2.559985263953919871e-02 7.674675709975501192e+00
9.286640694766630233e+00 0.000000000000000000e+00 0.000000000000000000e+00 -6.333963539798487252e-02 7.675536800230806200e+00 0.000000000000000000e+00 -8.525950922059032100e-02 2.559985263953919871e-02 7.656548277543461012e+00
9.268806761387120119e+00 0.000000000000000000e+00 0.000000000000000000e+00 -6.333963539798487252e-02 7.660796807971641087e+00 0.000000000000000000e+00 -8.525950922059032100e-02 2.559985263953919871e-02 7.641844750575390144e+00
9.254826671341728428e+00 0.000000000000000000e+00 0.000000000000000000e+00 -6.333963539798487252e-02 7.649242070457189513e+00 0.000000000000000000e+00 -8.525950922059032100e-02 2.559985263953919871e-02 7.630318598344392633e+00
9.246299569806293306e+00 0.000000000000000000e+00 0.000000000000000000e+00 -6.333963539798487252e-02 7.642194303263258881e+00 0.000000000000000000e+00 -8.525950922059032100e-02 2.559985263953919871e-02 7.623288266633099219e+00
9.244457816444981546e+00 0.000000000000000000e+00 0.000000000000000000e+00 -6.333963539798487252e-02 7.640672068672700767e+00 0.000000000000000000e+00 -8.525950922059032100e-02 2.559985263953919871e-02 7.621769797900863175e+00
9.246767421484198834e+00 0.000000000000000000e+00 0.000000000000000000e+00 -6.333963539798487252e-02 7.642580989137378822e+00 0.000000000000000000e+00 -8.525950922059032100e-02 2.559985263953919871e-02 7.623673995884725940e+00
9.251018712599487159e+00 0.000000000000000000e+00 0.000000000000000000e+00 -6.333963539798487252e-02 7.646094739962171261e+00 0.000000000000000000e+00 -8.525950922059032100e-02 2.559985263953919871e-02 7.627179054035556405e+00
9.257844118282395840e+00 0.000000000000000000e+00 0.000000000000000000e+00 -6.333963539798487252e-02 7.651736032030195922e+00 0.000000000000000000e+00 -8.525950922059032100e-02 2.559985263953919871e-02 7.632806390101914751e+00
9.269409608819948687e+00 0.000000000000000000e+00 0.000000000000000000e+00 -6.333963539798487252e-02 7.661295069701496097e+00 0.000000000000000000e+00 -8.525950922059032100e-02 2.559985263953919871e-02 7.642341779654341138e+00
9.285273162258558699e+00 0.000000000000000000e+00 0.000000000000000000e+00 -6.333963539798487252e-02 7.674406515724063738e+00 0.000000000000000000e+00 -8.525950922059032100e-02 2.559985263953919871e-02 7.655420789249623326e+00
9.301612732259073368e+00 0.000000000000000000e+00 0.000000000000000000e+00 -6.333963539798487252e-02 7.687911396008907161e+00 0.000000000000000000e+00 -8.525950922059032100e-02 2.559985263953919871e-02 7.668892259790781374e+00
9.314894763038704895e+00 0.000000000000000000e+00 0.000000000000000000e+00 -6.333963539798487252e-02 7.698889177898488256e+00 0.000000000000000000e+00 -8.525950922059032100e-02 2.559985263953919871e-02 7.679842883727692637e+00
9.324472399798944267e+00 0.000000000000000000e+00 0.000000000000000000e+00 -6.333963539798487252e-02 7.706805226966325861e+00 0.000000000000000000e+00 -8.525950922059032100e-02 2.559985263953919871e-02 7.687739349269259392e+00
9.330425442926433277e+00 0.000000000000000000e+00 0.000000000000000000e+00 -6.333963539798487252e-02 7.711725499333756950e+00 0.000000000000000000e+00 -8.525950922059032100e-02 2.559985263953919871e-02 7.692647449366757151e+00
9.330845030406162977e+00 0.000000000000000000e+00 0.000000000000000000e+00 -6.333963539798487252e-02 7.712072294181501420e+00 0.000000000000000000e+00 -8.525950922059032100e-02 2.559985263953919871e-02 7.692993386278440759e+00
9.323359885060913399e+00 0.000000000000000000e+00 0.000000000000000000e+00 -6.333963539798487252e-02 7.705885718169295906e+00 0.000000000000000000e+00 -8.525950922059032100e-02 2.559985263953919871e-02 7.686822115247134768e+00
9.310605507980948659e+00 0.000000000000000000e+00 0.000000000000000000e+00 -6.333963539798487252e-02 7.695344049350316240e+00 0.000000000000000000e+00 -8.525950922059032100e-02 2.559985263953919871e-02 7.676306525479035692e+00
9.297824072465738610e+00 0.000000000000000000e+00 0.000000000000000000e+00 -6.333963539798487252e-02 7.684780016362070754e+00 0.000000000000000000e+00 -8.525950922059032100e-02 2.559985263953919871e-02 7.665768626868353586e+00
9.286922160636427392e+00 0.000000000000000000e+00 0.000000000000000000e+00 -6.333963539798487252e-02 7.675769435658686746e+00 0.000000000000000000e+00 -8.525950922059032100e-02 2.559985263953919871e-02 7.656780337454653917e+00
9.277023614714437372e+00 0.000000000000000000e+00 0.000000000000000000e+00 -6.333963539798487252e-02 7.667588150736627028e+00 0.000000000000000000e+00 -8.525950922059032100e-02 2.559985263953919871e-02 7.648619292227087918e+00
9.268026919377126305e+00 0.000000000000000000e+00 0.000000000000000000e+00 -6.333963539798487252e-02 7.660152257779865081e+00 0.000000000000000000e+00 -8.525950922059032100e-02 2.559985263953919871e-02 7.641201794937436453e+00
9.261000148820333067e+00 0.000000000000000000e+00 0.000000000000000000e+00 -6.333963539798487252e-02 7.654344534860867633e+00 0.000000000000000000e+00 -8.525950922059032100e-02 2.559985263953919871e-02 7.635408439753732956e+00
9.257563870611585699e+00 0.000000000000000000e+00 0.000000000000000000e+00 -6.333963539798487252e-02 7.651504403460519299e+00 0.000000000000000000e+00 -8.525950922059032100e-02 2.559985263953919871e-02 7.632575334558939772e+00
9.257120377017468371e+00 0.000000000000000000e+00 0.000000000000000000e+00 -6.333963539798487252e-02 7.651137849878511865e+00 0.000000000000000000e+00 -8.525950922059032100e-02 2.559985263953919871e-02 7.632209687794712316e+00
9.257899112046834134e+00 0.000000000000000000e+00 0.000000000000000000e+00 -6.333963539798487252e-02 7.651781485136552874e+00 0.000000000000000000e+00 -8.525950922059032100e-02 2.559985263953919871e-02 7.632851730761919917e+00
9.260478492375145976e+00 0.000000000000000000e+00 0.000000000000000000e+00 -6.333963539798487252e-02 7.653913378604732642e+00 0.000000000000000000e+00 -8.525950922059032100e-02 2.559985263953919871e-02 7.634978350135458669e+00
9.267504240599821586e+00 0.000000000000000000e+00 0.000000000000000000e+00 -6.333963539798487252e-02 7.659720256550595074e+00 0.000000000000000000e+00 -8.525950922059032100e-02 2.559985263953919871e-02 7.640770862437013200e+00
9.277032784945651755e+00 0.000000000000000000e+00 0.000000000000000000e+00 -6.333963539798487252e-02 7.667595730059997727e+00 0.000000000000000000e+00 -8.525950922059032100e-02 2.559985263953919871e-02 7.648626852799567111e+00
9.283184105160801280e+00 0.000000000000000000e+00 0.000000000000000000e+00 -6.333963539798487252e-02 7.672679881179091943e+00 0.000000000000000000e+00 -8.525950922059032100e-02 2.559985263953919871e-02 7.653698426229063045e+00
9.284460335201435655e+00 0.000000000000000000e+00 0.000000000000000000e+00 -6.333963539798487252e-02 7.673734702934221552e+00 0.000000000000000000e+00 -8.525950922059032100e-02 2.559985263953919871e-02 7.654750638459212553e+00
9.283753722481913329e+00 0.000000000000000000e+00 0.000000000000000000e+00 -6.333963539798487252e-02 7.673150677762046179e+00 0.000000000000000000e+00 -8.525950922059032100e-02 2.559985263953919871e-02 7.654168058107720718e+00
9.282880768760895407e+00 0.000000000000000000e+00 0.000000000000000000e+00 -6.333963539798487252e-02 7.672429169454265008e+00 0.000000000000000000e+00 -8.525950922059032100e-02 2.559985263953919871e-02 7.653448334740664549e+00
9.281410690613107306e+00 0.000000000000000000e+00 0.000000000000000000e+00 -6.333963539798487252e-02 7.671214129561399808e+00 0.000000000000000000e+00 -8.525950922059032100e-02 2.559985263953919871e-02 7.652236300736498187e+00
9.279277380951082677e+00 0.000000000000000000e+00 0.000000000000000000e+00 -6.333963539798487252e-02 7.669450919660967259e+00 0.000000000000000000e+00 -8.525950922059032100e-02 2.559985263953919871e-02 7.650477452843955639e+00
9.279672850824638886e+00 0.000000000000000000e+00 0.000000000000000000e+00 -6.333963539798487252e-02 7.669777780972455439e+00 0.000000000000000000e+00 -8.525950922059032100e-02 2.559985263953919871e-02 7.650803505533098736e+00
9.285126695532664343e+00 0.000000000000000000e+00 0.000000000000000000e+00 -6.333963539798487252e-02 7.674285458951903394e+00 0.000000000000000000e+00 -8.525950922059032100e-02 2.559985263953919871e-02 7.655300031960738494e+00
9.293065726945210159e+00 0.000000000000000000e+00 0.000000000000000000e+00 -6.333963539798487252e-02 7.680847178066672498e+00 0.000000000000000000e+00 -8.525950922059032100e-02 2.559985263953919871e-02 7.661845518027949886e+00
9.301315660728107559e+00 0.000000000000000000e+00 0.000000000000000000e+00 -6.333963539798487252e-02 7.687665862286272578e+00 0.000000000000000000e+00 -8.525950922059032100e-02 2.559985263953919871e-02 7.668647333493651352e+00
9.312222539216829631e+00 0.000000000000000000e+00 0.000000000000000000e+00 -6.333963539798487252e-02 7.696680548001027411e+00 0.000000000000000000e+00 -8.525950922059032100e-02 2.559985263953919871e-02 7.677639717763780070e+00
9.325472278118343894e+00 0.000000000000000000e+00 0.000000000000000000e+00 -6.333963539798487252e-02 7.707631640208242096e+00 0.000000000000000000e+00 -8.525950922059032100e-02 2.559985263953919871e-02 7.688563718045943851e+00
9.335895408763663639e+00 0.000000000000000000e+00 0.000000000000000000e+00 -6.333963539798487252e-02 7.716246501649505873e+00 0.000000000000000000e+00 -8.525950922059032100e-02 2.559985263953919871e-02 7.697157267167887618e+00
9.341687299413797163e+00 0.000000000000000000e+00 0.000000000000000000e+00 -6.333963539798487252e-02 7.721033579268645752e+00 0.000000000000000000e+00 -8.525950922059032100e-02 2.559985263953919871e-02 7.701932502028197902e+00
9.345565133822814730e+00 0.000000000000000000e+00 0.000000000000000000e+00 -6.333963539798487252e-02 7.724238662967218616e+00 0.000000000000000000e+00 -8.525950922059032100e-02 2.559985263953919871e-02 7.705129656665413052e+00
9.349084197645023409e+00 0.000000000000000000e+00 0.000000000000000000e+00 -6.333963539798487252e-02 7.727147217821700664e+00 0.000000000000000000e+00 -8.525950922059032100e-02 2.559985263953919871e-02 7.708031016040314931e+00
9.350591670811553513e+00 0.000000000000000000e+00 0.000000000000000000e+00 -6.333963539798487252e-02 7.728393165214652250e+00 0.000000000000000000e+00 -8.525950922059032100e-02 2.559985263953919871e-02 7.709273881083009705e+00
9.347853606992673647e+00 0.000000000000000000e+00 0.000000000000000000e+00 -6.333963539798487252e-02 7.726130117650435558e+00 0.000000000000000000e+00 -8.525950922059032100e-02 2.559985263953919871e-02 7.707016432075565859e+00
9.342206898202830345e+00 0.000000000000000000e+00 0.000000000000000000e+00 -6.333963539798487252e-02 7.721463034843569773e+00 0.000000000000000000e+00 -8.525950922059032100e-02 2.559985263953919871e-02 7.702360895172238209e+00
9.337975819827191160e+00 0.000000000000000000e+00 0.000000000000000000e+00 -6.333963539798487252e-02 7.717965990127612308e+00 0.000000000000000000e+00 -8.525950922059032100e-02 2.559985263953919871e-02 7.698872501800480883e+00
9.335014774432860207e+00 0.000000000000000000e+00 0.000000000000000000e+00 -6.333963539798487252e-02 7.715518645211266069e+00 0.000000000000000000e+00 -8.525950922059032100e-02 2.559985263953919871e-02 7.696431211375283965e+00
9.329780930895438473e+00 0.000000000000000000e+00 0.000000000000000000e+00 -6.333963539798487252e-02 7.711192801239127093e+00 0.000000000000000000e+00 -8.525950922059032100e-02 2.559985263953919871e-02 7.692116069114542043e+00
9.321927780645536288e+00 0.000000000000000000e+00 0.000000000000000000e+00 -6.333963539798487252e-02 7.704702064089764768e+00 0.000000000000000000e+00 -8.525950922059032100e-02 2.559985263953919871e-02 7.685641389410747593e+00
9.312351671450505464e+00 0.000000000000000000e+00 0.000000000000000000e+00 -6.333963539798487252e-02 7.696787277576659037e+00 0.000000000000000000e+00 -8.525950922059032100e-02 2.559985263953919871e-02 7.677746183299931637e+00
9.299047774124746368e+00 0.000000000000000000e+00 0.000000000000000000e+00 -6.333963539798487252e-02 7.685791422684111751e+00 0.000000000000000000e+00 -8.525950922059032100e-02 2.559985263953919871e-02 7.666777531070796847e+00
9.283661914948384108e+00 0.000000000000000000e+00 0.000000000000000000e+00 -6.333963539798487252e-02 7.673074797567835503e+00 0.000000000000000000e+00 -8.525950922059032100e-02 2.559985263953919871e-02 7.654092365633429651e+00
9.269019555984209902e+00 0.000000000000000000e+00 0.000000000000000000e+00 -6.333963539798487252e-02 7.660972685645235813e+00 0.000000000000000000e+00 -8.525950922059032100e-02 2.559985263953919871e-02 7.642020193145489415e+00
9.257331681086139241e+00 0.000000000000000000e+00 0.000000000000000000e+00 -6.333963539798487252e-02 7.651312495611198194e+00 0.000000000000000000e+00 -8.525950922059032100e-02 2.559985263953919871e-02 7.632383901469886212e+00
9.249353540400718998e+00 0.000000000000000000e+00 0.000000000000000000e+00 -6.333963539798487252e-02 7.644718452141498588e+00 0.000000000000000000e+00 -8.525950922059032100e-02 2.559985263953919871e-02 7.625806171015283574e+00
9.246288499826015084e+00 0.000000000000000000e+00 0.000000000000000000e+00 -6.333963539798487252e-02 7.642185153771926309e+00 0.000000000000000000e+00 -8.525950922059032100e-02 2.559985263953919871e-02 7.623279139776636626e+00
9.248704355521622844e+00 0.000000000000000000e+00 0.000000000000000000e+00 -6.333963539798487252e-02 7.644181891872101176e+00 0.000000000000000000e+00 -8.525950922059032100e-02 2.559985263953919871e-02 7.625270938143245303e+00
9.256190052668694435e+00 0.000000000000000000e+00 0.000000000000000000e+00 -6.333963539798487252e-02 7.650368923954681044e+00 0.000000000000000000e+00 -8.525950922059032100e-02 2.559985263953919871e-02 7.631442664117932040e+00
9.265782543156431572e+00 0.000000000000000000e+00 0.000000000000000000e+00 -6.333963539798487252e-02 7.658297249833849740e+00 0.000000000000000000e+00 -8.525950922059032100e-02 2.559985263953919871e-02 7.639351376098003854e+00
9.274124538198394774e+00 0.000000000000000000e+00 0.000000000000000000e+00 -6.333963539798487252e-02 7.665192023954453759e+00 0.000000000000000000e+00 -8.525950922059032100e-02 2.559985263953919871e-02 7.646229093226793339e+00
9.282046027556917878e+00 0.000000000000000000e+00 0.000000000000000000e+00 -6.333963539798487252e-02 7.671739244320682438e+00 0.000000000000000000e+00 -8.525950922059032100e-02 2.559985263953919871e-02 7.652760116413256597e+00
9.289446302241708864e+00 0.000000000000000000e+00 0.000000000000000000e+00 -6.333963539798487252e-02 7.677855673559673022e+00 0.000000000000000000e+00 -8.525950922059032100e-02 2.559985263953919871e-02 7.658861414208349316e+00
9.292955346955588780e+00 0.000000000000000000e+00 0.000000000000000000e+00 -6.333963539798487252e-02 7.680755947480823131e+00 0.000000000000000000e+00 -8.525950922059032100e-02 2.559985263953919871e-02 7.661754513137800870e+00
9.291854830206496274e+00 0.000000000000000000e+00 0.000000000000000000e+00 -6.333963539798487252e-02 7.679846355187710749e+00 0.000000000000000000e+00 -8.525950922059032100e-02 2.559985263953919871e-02 7.660847171086735408e+00
9.289440815278293684e+00 0.000000000000000000e+00 0.000000000000000000e+00 -6.333963539798487252e-02 7.677851138507778117e+00 0.000000000000000000e+00 -8.525950922059032100e-02 2.559985263953919871e-02 7.658856890376390503e+00
9.288132586102854304e+00 0.000000000000000000e+00 0.000000000000000000e+00 -6.333963539798487252e-02 7.676769869024891335e+00 0.000000000000000000e+00 -8.525950922059032100e-02 2.559985263953919871e-02 7.657778295848105543e+00
9.286584111087341498e+00 0.000000000000000000e+00 0.000000000000000000e+00 -6.333963539798487252e-02 7.675490033038012250e+00 0.000000000000000000e+00 -8.525950922059032100e-02 2.559985263953919871e-02 7.656501626049001530e+00
9.283422475582668199e+00 0.000000000000000000e+00 0.000000000000000000e+00 -6.333963539798487252e-02 7.672876897625006798e+00 0.000000000000000000e+00 -8.525950922059032100e-02 2.559985263953919871e-02 7.653894955275782230e+00
9.280013677740734934e+00 0.000000000000000000e+00 0.000000000000000000e+00 -6.333963539798487252e-02 7.670059479126916102e+00 0.000000000000000000e+00 -8.525950922059032100e-02 2.559985263953919871e-02 7.651084506793570661e+00
9.278917661967732045e+00 0.000000000000000000e+00 0.000000000000000000e+00 -6.333963539798487252e-02 7.669153606952388458e+00 0.000000000000000000e+00 -8.525950922059032100e-02 2.559985263953919871e-02 7.650180875657143886e+00
9.278233699658825273e+00 0.000000000000000000e+00 0.000000000000000000e+00 -6.333963539798487252e-02 7.668588302656450750e+00 0.000000000000000000e+00 -8.525950922059032100e-02 2.559985263953919871e-02 7.649616969869155625e+00
9.274957946918043206e+00 0.000000000000000000e+00 0.000000000000000000e+00 -6.333963539798487252e-02 7.665880847772376327e+00 0.000000000000000000e+00 -8.525950922059032100e-02 2.559985263953919871e-02 7.646916212961524906e+00
9.271230361408150600e+00 0.000000000000000000e+00 0.000000000000000000e+00 -6.333963539798487252e-02 7.662799946863969147e+00 0.000000000000000000e+00 -8.525950922059032100e-02 2.559985263953919871e-02 7.643842933899245295e+00
9.269281396462979217e+00 0.000000000000000000e+00 0.000000000000000000e+00 -6.333963539798487252e-02 7.661189100417487019e+00 0.000000000000000000e+00 -8.525950922059032100e-02 2.559985263953919871e-02 7.642236072527823332e+00
9.268331090749223122e+00 0.000000000000000000e+00 0.000000000000000000e+00 -6.333963539798487252e-02 7.660403659619720251e+00 0.000000000000000000e+00 -8.525950922059032100e-02 2.559985263953919871e-02 7.641452574833871303e+00
9.266966099702523607e+00 0.000000000000000000e+00 0.000000000000000000e+00 -6.333963539798487252e-02 7.659275475666887267e+00 0.000000000000000000e+00 -8.525950922059032100e-02 2.559985263953919871e-02 7.640327181896972242e+00
9.265277659547694000e+00 0.000000000000000000e+00 0.000000000000000000e+00 -6.333963539798487252e-02 7.657879956557915868e+00 0.000000000000000000e+00 -8.525950922059032100e-02 2.559985263953919871e-02 7.638935115165127243e+00
9.263201605160087837e+00 0.000000000000000000e+00 0.000000000000000000e+00 -6.333963539798487252e-02 7.656164068932081790e+00 0.000000000000000000e+00 -8.525950922059032100e-02 2.559985263953919871e-02 7.637223472476858177e+00
9.262115320062072499e+00 0.000000000000000000e+00 0.000000000000000000e+00 -6.333963539798487252e-02 7.655266239295259290e+00 0.000000000000000000e+00 -8.525950922059032100e-02 2.559985263953919871e-02 7.636327863981250630e+00
9.260866347683533562e+00 0.000000000000000000e+00 0.000000000000000000e+00 -6.333963539798487252e-02 7.654233946373448561e+00 0.000000000000000000e+00 -8.525950922059032100e-02 2.559985263953919871e-02 7.635298124850739221e+00
9.260014686936949957e+00 0.000000000000000000e+00 0.000000000000000000e+00 -6.333963539798487252e-02 7.653530037003362985e+00 0.000000000000000000e+00 -8.525950922059032100e-02 2.559985263953919871e-02 7.634595956883629242e+00
9.263100594782534003e+00 0.000000000000000000e+00 0.000000000000000000e+00 -6.333963539798487252e-02 7.656080582459654060e+00 0.000000000000000000e+00 -8.525950922059032100e-02 2.559985263953919871e-02 7.637140192541242989e+00
9.270833116477810165e+00 0.000000000000000000e+00 0.000000000000000000e+00 -6.333963539798487252e-02 7.662471618441927035e+00 0.000000000000000000e+00 -8.525950922059032100e-02 2.559985263953919871e-02 7.643515417729526362e+00
9.279017974447302919e+00 0.000000000000000000e+00 0.000000000000000000e+00 -6.333963539798487252e-02 7.669236516602135900e+00 0.000000000000000000e+00 -8.525950922059032100e-02 2.559985263953919871e-02 7.650263580197071533e+00
9.284313125897815766e+00 0.000000000000000000e+00 0.000000000000000000e+00 -6.333963539798487252e-02 7.673613032412593959e+00 0.000000000000000000e+00 -8.525950922059032100e-02 2.559985263953919871e-02 7.654629268937852338e+00
9.286760885038779278e+00 0.000000000000000000e+00 0.000000000000000000e+00 -6.333963539798487252e-02 7.675636139149982107e+00 0.000000000000000000e+00 -8.525950922059032100e-02 2.559985263953919871e-02 7.656647370709050548e+00
9.288745287604960765e+00 0.000000000000000000e+00 0.000000000000000000e+00 -6.333963539798487252e-02 7.677276275279863782e+00 0.000000000000000000e+00 -8.525950922059032100e-02 2.559985263953919871e-02 7.658283449303290524e+00
9.291852993507069058e+00 0.000000000000000000e+00 0.000000000000000000e+00 -6.333963539798487252e-02 7.679844837130448632e+00 0.000000000000000000e+00 -8.525950922059032100e-02 2.559985263953919871e-02 7.660845656784451840e+00
9.294470681855866445e+00 0.000000000000000000e+00 0.000000000000000000e+00 -6.333963539798487252e-02 7.682008392705371058e+00 0.000000000000000000e+00 -8.525950922059032100e-02 2.559985263953919871e-02 7.663003859936185158e+00
9.295727894297973748e+00 0.000000000000000000e+00 0.000000000000000000e+00 -6.333963539798487252e-02 7.683047496153979417e+00 0.000000000000000000e+00 -8.525950922059032100e-02 2.559985263953919871e-02 7.664040392744589703e+00
9.299399134805206302e+00 0.000000000000000000e+00 0.000000000000000000e+00 -6.333963539798487252e-02 7.686081827139456202e+00 0.000000000000000000e+00 -8.525950922059032100e-02 2.559985263953919871e-02 7.667067217094277076e+00
9.308777240709005696e+00 0.000000000000000000e+00 0.000000000000000000e+00 -6.333963539798487252e-02 7.693832961199594145e+00 0.000000000000000000e+00 -8.525950922059032100e-02 2.559985263953919871e-02 7.674799175610795388e+00