8.172651534300000298e-02 3.836459442895999938e+00 3.632924472115000025e+00 4.719240128281000146e+00 7.542065648430999580e+00 3.233163490799999956e-02 4.607491875300000039e+00 7.582091519686000147e+00 3.724443978062999872e+00 4.865376268001000426e+00 3.732104979238000109e+00 3.697871760497999816e+00 5.056537401799999776e-01 5.355792814600000146e-02 2.767628431379999809e-01 5.998664147359999976e-01 3.992265145099999774e-02 3.616164175075999854e+00 3.343195294529999750e-01 3.783785182862999807e+00 1.239610355380000029e-01 5.259375657426000217e+00 3.703053624498000129e+00 8.600942598199999567e-02 2.530659814274000219e+00 1.913236904816999928e+00 1.807295514076000087e+00 2.454340239097000165e+00 5.606247993090000215e+00 1.826041558483000093e+00 7.217011933131000312e+00 1.842923824037999925e+00 1.840260504149999976e+00 7.178766835268000079e+00 5.748230377475000097e+00 1.816657828469000036e+00 2.370869779441000080e+00 1.958713853454000065e+00 5.704806058229999977e+00 2.320848326071999868e+00 5.653092783153000234e+00 5.708984263628000377e+00 7.247742256683999962e+00 1.854505619421999985e+00 5.646551447164999793e+00 7.218062752091999990e+00 5.762005466333000037e+00 5.686084516700000258e+00 1.856553574856999900e+00 1.963229361648000104e+00 7.551919685996000275e+00 8.926088060153999137e+00 1.688392284587000081e+00 1.979323082342000051e+00 2.325387101092999842e+00 1.061714699689999958e-01 1.999643730921000007e+00 2.227035534617999968e+00 2.189705371294000003e+00 3.757281761528000086e+00 9.050069690649999998e+00 1.681392064885999904e+00 5.468066024911999889e+00 2.158375211071999811e+00 1.053413408760000003e-01 5.528083424038999993e+00 1.999745156247999978e+00 6.039764523438999611e+00 7.570887774640000067e+00 8.933918051072000210e+00 5.892999543134999740e+00 1.863153561637999944e+00 1.914030903940999950e+00 3.890246723988000088e+00 1.787197979040000106e+00 2.096632945677999960e+00 5.744873164906000085e+00 3.782803856649000096e+00 8.990219746414000568e+00 5.922268809259000122e+00 5.648332935848999981e+00 1.667818407334000108e+00 3.898793488517999783e+00 5.782495927433999761e+00 6.780431187118000302e+00 1.821594488871000062e+00 7.514005205367999984e+00 4.296018330756999681e+00 2.051405249079000015e+00 1.701228335973999917e+00 6.504983113715000265e+00 7.529940387811000058e+00 1.899157211838000014e+00 6.666956393272999826e+00 1.813594318070000044e+00 3.835728569816000189e+00 4.214989144427000234e+00 2.101940821426000028e+00 5.834192697709999820e+00 6.464536849459999956e+00 7.554672783292000204e+00 5.682430569607999971e+00 6.653225574736000070e+00 5.610147443111999976e+00 7.540791211734999777e+00 4.237227947940000128e+00 5.551029528655999634e+00 1.853254142324000098e+00 6.946403075993999643e+00 3.738014104302000096e+00 1.939239444850000105e+00 6.722465401324999590e+00 5.650510688098999701e+00 3.795539405577999847e+00 4.151164149460999653e+00 5.557778873592000402e+00 5.683488897941000317e+00 6.927032425359000101e+00 3.801737149560000084e+00 5.654502042376000404e+00
9.205663482100000239e-02 3.837419085281000175e+00 3.646098577442999922e+00 4.722834786590000000e+00 7.537366894354000202e+00 5.397536519099999791e-02 4.570505853342999636e+00 7.596013577216999657e+00 3.720610555564999977e+00 4.896540235794000218e+00 3.700942421184000075e+00 3.705599325552999979e+00 5.325118511530000376e-01 1.149887413300000050e-01 2.342201037259999952e-01 6.002683512880000460e-01 2.763155474199999878e-02 3.630487608950999867e+00 2.775124272860000074e-01 3.778235630224000108e+00 1.265769291280000042e-01 5.301447342756000047e+00 3.744350286813999951e+00 2.105226977500000013e-02 2.572615407358000095e+00 1.934418819341999995e+00 1.810307232166999958e+00 2.457427066456999931e+00 5.605353033459000045e+00 1.858048357498000014e+00 7.208707882986000293e+00 1.884684171228999894e+00 1.837164034863999929e+00 7.205955496228999557e+00 5.721699634474999741e+00 1.801266858193000031e+00 2.363950320864999899e+00 1.950364745362000107e+00 5.688187220480999784e+00 2.322889492515999965e+00 5.682360330276999605e+00 5.707916878348999745e+00 7.242011012567999728e+00 1.841243757375000012e+00 5.619839402811999562e+00 7.212151740147000112e+00 5.757320020815999584e+00 5.714498628833999838e+00 1.862696803278000024e+00 2.059466474720000218e+00 7.558278541263000250e+00 8.901935224803999347e+00 1.697124632756999985e+00 2.019894011449999915e+00 2.352692649947000003e+00 1.155595878359999967e-01 1.955646698510000059e+00 2.283797607873999880e+00 2.258949906998999779e+00 3.704685473497999926e+00 9.052400470351999573e+00 1.652471365272000003e+00 5.472891837713000029e+00 2.220229156717000052e+00 1.398840705770000026e-01 5.506761326802999790e+00 1.989475097933000036e+00 6.056264505232999973e+00 7.530193175365999636e+00 8.965697011955999329e+00 5.919627434165000146e+00 1.869550191397000072e+00 1.928707127410000055e+00 3.916505246868999812e+00 1.780632305826999939e+00 2.125551564508000091e+00 5.722603831133000085e+00 3.821236614498999984e+00 9.020366798012000586e+00 5.963140158548999814e+00 5.649975412237999706e+00 1.584354173197999982e+00 3.962015304466000032e+00 5.743495567799000057e+00 6.819804116438000108e+00 1.760343891398999938e+00 7.575494844674000028e+00 4.277189432436999894e+00 2.041939553903000082e+00 1.634974086359000101e+00 6.467988308826999599e+00 7.520683996197999654e+00 1.964685336865999998e+00 6.550271405921000323e+00 1.825741847933999962e+00 3.883849163454000220e+00 4.260264579468000079e+00 2.056005760570000174e+00 5.898265914623999961e+00 6.427361399938999575e+00 7.542092675307999983e+00 5.641585356932999673e+00 6.669992206187999706e+00 5.556521106982000191e+00 7.520010641420999953e+00 4.247563389278999679e+00 5.542155694956999668e+00 1.869795646895000107e+00 6.913783605955000411e+00 3.761840105349000041e+00 1.908731387083999920e+00 6.723211542135000052e+00 5.623608907071999674e+00 3.778245300173999954e+00 4.189373343410999873e+00 5.595683014956000179e+00 5.697160745119999703e+00 6.945755078768000246e+00 3.800916524607000024e+00 5.718431915272000232e+00
1.039995563470000051e-01 3.843172149982999830e+00 3.659759327670999873e+00 4.729399532377000170e+00 7.536459225323000055e+00 7.531325129299999699e-02 4.537954572381999618e+00 7.610851307569999946e+00 3.718940679963000040e+00 4.926360517650000048e+00 3.679079394862000196e+00 3.716230155205999974e+00 5.577978613690000032e-01 1.711948020379999991e-01 1.957955359469999990e-01 5.955087660250000248e-01 1.302900090000000052e-02 3.639454656828999823e+00 2.280630957010000015e-01 3.779789148218999806e+00 1.264897039890000019e-01 5.249129438116000301e+00 3.805928757618000091e+00 7.547734800628999707e+00 2.581809983535999997e+00 1.962137625785999928e+00 1.807282732365000033e+00 2.462770601688000216e+00 5.631344914611999819e+00 1.881497406780999970e+00 7.191452435815000044e+00 1.900263613169000054e+00 1.837367628008000020e+00 7.239631412119999609e+00 5.722343028911000218e+00 1.809532620216000032e+00 2.367347348166000121e+00 1.962343545471000095e+00 5.683731403504999946e+00 2.329542728764999904e+00 5.713668926879000409e+00 5.716894743384999700e+00 7.240173450740000405e+00 1.822940895227000091e+00 5.613012633983999855e+00 7.211655518708999679e+00 5.763036826866000162e+00 5.729226624263000112e+00 1.879633312661000089e+00 2.118306290476999809e+00 7.533811995954000196e+00 8.903091139037000445e+00 1.723480372427999896e+00 2.065728906141000021e+00 2.401519403397000207e+00 1.218491709030000009e-01 1.923260624092999915e+00 2.363075219931999982e+00 2.309806630388000048e+00 3.716333419913000036e+00 9.035968356923000044e+00 1.640603996789999908e+00 5.478596228612000019e+00 2.289069525076000033e+00 1.319322381960000012e-01 5.480802715635999967e+00 1.998900611772999936e+00 6.067643197447999626e+00 7.543960017956999664e+00 8.955130016863000364e+00 5.930150835886999872e+00 1.872478175502999997e+00 1.939136508932999936e+00 3.907314448673000040e+00 1.769830608843000030e+00 2.145855263050000072e+00 5.712212231796000239e+00 3.777231020678999851e+00 9.025747384676000351e+00 6.011742242979000395e+00 5.658467084217000398e+00 1.530260218338000078e+00 3.946812487449999907e+00 5.721050244028999643e+00 6.961774418967999978e+00 1.692358211484999986e+00 1.464832547000000096e-03 4.337083119136000420e+00 2.048081568186999935e+00 1.588679952719000088e+00 6.470650668971999586e+00 7.523702696414000357e+00 2.001520499499000127e+00 6.466821965740000344e+00 1.851303454558999917e+00 3.867865921758999903e+00 4.222568980669000105e+00 2.021832946287999810e+00 5.933905090399999693e+00 6.418909088033999844e+00 7.558910354424000388e+00 5.628083318369999866e+00 6.687372525249999811e+00 5.549684360731999888e+00 7.543947458645999582e+00 4.237330342052000098e+00 5.538366111980000284e+00 1.885604422167000083e+00 6.907671464607999745e+00 3.767770864551000187e+00 1.886713398918000051e+00 6.749709729236999856e+00 5.589964230546000223e+00 3.798021510095999975e+00 4.205917024044000030e+00 5.625506709489999757e+00 5.719076679263999985e+00 6.990594006151000350e+00 3.728234945489000030e+00 5.764043881230000110e+00
1.170012710710000015e-01 3.852567784756999902e+00 3.672035416011000031e+00 4.738384629862999908e+00 7.538228703835000211e+00 9.643689376899999832e-02 4.509843255570999965e+00 7.625049701931000179e+00 3.718729160601999872e+00 4.950855363457000280e+00 3.668959741041000200e+00 3.727992434372000119e+00 5.776781744569999821e-01 2.196806636879999886e-01 1.640378638099999897e-01 5.210526373880000062e-01 7.619909990293000313e+00 3.640111523080999945e+00 1.897064758010000018e-01 3.786246121186000124e+00 1.234882713490000061e-01 5.267201086054000392e+00 3.829232989063000137e+00 7.505773068759999944e+00 2.582959594246000190e+00 1.999901872132000102e+00 1.791402401555000079e+00 2.470018995100999870e+00 5.667233663101000296e+00 1.888392322447999927e+00 7.172850204717000189e+00 1.884997105442999921e+00 1.842881224272999940e+00 7.256205284713000303e+00 5.752060541866000243e+00 1.842678484531000027e+00 2.377989525788000158e+00 1.995403311703999982e+00 5.691609442824000276e+00 2.338417348295999787e+00 5.737102754511999692e+00 5.734933221534999959e+00 7.238295653163000054e+00 1.796873613120999913e+00 5.623472239496000391e+00 7.217795027709000166e+00 5.778012726906999852e+00 5.728042214725999948e+00 1.898417967552000096e+00 2.119276140093000027e+00 7.508400479464000021e+00 8.910409855755000663e+00 1.763361932930999965e+00 2.112895062276999969e+00 2.454811698223000160e+00 1.423208455330000066e-01 1.909161944635999975e+00 2.456974658761000185e+00 2.325475894705999913e+00 3.764730250992000204e+00 9.029587961713000155e+00 1.633862338282999982e+00 5.470273491478000238e+00 2.340649663822000015e+00 7.924097217299999607e-02 5.447768010059999888e+00 2.025392778452999920e+00 6.069451737098000343e+00 7.577228910677000329e+00 8.953457550657999420e+00 5.929220606602999766e+00 1.873236471135000025e+00 1.941739090090000008e+00 3.884999342997999872e+00 1.754394228396999988e+00 2.150719810997999915e+00 5.721916717556999821e+00 3.715449715120000107e+00 8.985163162623999611e+00 6.060658125237999627e+00 5.673676437880000201e+00 1.538733013976000041e+00 3.916988457956000147e+00 5.720496766959000112e+00 6.944391342354999885e+00 1.692355254468000059e+00 7.553858685524000194e+00 4.402125533926000145e+00 2.071318747902000101e+00 1.575292393091999976e+00 6.517081175990999675e+00 7.522906570025999606e+00 2.004091924086000009e+00 6.454310181760000376e+00 1.867235927329000011e+00 3.817459582305000154e+00 4.143840874967000154e+00 2.017987399047000086e+00 5.938750510342000410e+00 6.440200476765999937e+00 7.566287637751000439e+00 5.644012039859999774e+00 6.708052364519000221e+00 5.595032207352000242e+00 7.585683601520999630e+00 4.215507435953999682e+00 5.543258118083000063e+00 1.897553822696999903e+00 6.930394573635999755e+00 3.758779291494999786e+00 1.874857000628000092e+00 6.805260498757999876e+00 5.547570270249999602e+00 3.865862791866999881e+00 4.178949930881000085e+00 5.634927972005000285e+00 5.744108167613999782e+00 7.051663194436000204e+00 3.664883683942000037e+00 5.786678285742000050e+00
1.300669299170000015e-01 3.864914724390999812e+00 3.682433149401000083e+00 4.750478633849000154e+00 7.543902766929999615e+00 1.168557335420000037e-01 4.486811037420999959e+00 7.640657628359999620e+00 3.720615205685999793e+00 4.969558617512999987e+00 3.671854681234000051e+00 3.740024871445000176e+00 5.881062440209999798e-01 2.561643388600000071e-01 1.394677241529999889e-01 5.047268338489999673e-01 7.623854543860000277e+00 3.633782921823999867e+00 1.614379579799999909e-01 3.796175953929000091e+00 1.191139551350000048e-01 5.274252154274999604e+00 3.840203793969999779e+00 7.484901476295999778e+00 2.601735504637999963e+00 2.050968867506000048e+00 1.766278687463000097e+00 2.471400000586999823e+00 5.697694967940000410e+00 1.876784874109999945e+00 7.169867636962999669e+00 1.851816162205000005e+00 1.854865280157999896e+00 7.251453869605000158e+00 5.797518595550999798e+00 1.888694015775999935e+00 2.380416647662999985e+00 2.037106548818000018e+00 5.705712523222000065e+00 2.343480253540000113e+00 5.753737338597000317e+00 5.759863170855999748e+00 7.243630000966000182e+00 1.764552566866999905e+00 5.643145297773999758e+00 7.225830658382999871e+00 5.798196160260999932e+00 5.725360980227000240e+00 1.905746267682000061e+00 2.057447614172000172e+00 7.540515649859999670e+00 8.900244800157999236e+00 1.802540249216999957e+00 2.149758104651000146e+00 2.499117062387000043e+00 1.827316954490000034e-01 1.912016985269000102e+00 2.551876249950999931e+00 2.304374383488999811e+00 3.782221159954000100e+00 9.050040449768999906e+00 1.621643641162999971e+00 5.445336111842999927e+00 2.363882148705000130e+00 3.636099793800000313e-02 5.418000804392000269e+00 2.059686527249000143e+00 6.062922184281999805e+00 7.590628822536999998e+00 8.992421930113000172e+00 5.928640357492000135e+00 1.878584751438000078e+00 1.940318846168000100e+00 3.870839971040000105e+00 1.736823108650999981e+00 2.134230329879999832e+00 5.745895540761000397e+00 3.716272340435000210e+00 8.970191419805999544e+00 6.108920032433999836e+00 5.694526851692000236e+00 1.611644061972999920e+00 3.922382677749999935e+00 5.742710219705999819e+00 7.008342476358000006e+00 1.675444929456999965e+00 7.521974928272999961e+00 4.409618430636999875e+00 2.107157392036000054e+00 1.594355686092000068e+00 6.589304326049999716e+00 7.520982562262999771e+00 1.985780201882999974e+00 6.517273018152000219e+00 1.848029395196000069e+00 3.771540932945999902e+00 4.152517046148999746e+00 2.053427068163999891e+00 5.938413161693000042e+00 6.461094119310000217e+00 7.550746220276000287e+00 5.670982764508000429e+00 6.815197487064000192e+00 5.652412400909000212e+00 1.074586591000000011e-03 4.218573781172000103e+00 5.562947963022000231e+00 1.905568451983999934e+00 6.974367553966000166e+00 3.742829181820999995e+00 1.872063426388000051e+00 6.870971165997000085e+00 5.504859075138000435e+00 3.922929541694999855e+00 4.145229099435000286e+00 5.615444995600999967e+00 5.768269943774000375e+00 7.110425806986000019e+00 3.682527766040000206e+00 5.792212037760999799e+00
1.416958739410000001e-01 3.879563935331999946e+00 3.690449945910000196e+00 4.764951355165999658e+00 7.553387595680000288e+00 1.352268099989999972e-01 4.467458390471000129e+00 7.658629830156000295e+00 3.724946677765999858e+00 4.984031704361999715e+00 3.685551643646999942e+00 3.751607791445000117e+00 5.845394980079999803e-01 2.724356676879999828e-01 1.235814972990000038e-01 4.858780910900000194e-01 7.635007321240999900e+00 3.621323137246000190e+00 1.384584630069999878e-01 3.809799558956000087e+00 1.162983807040000039e-01 5.277091355800999750e+00 3.842850423014000150e+00 7.488048311206999763e+00 2.639363962963999999e+00 2.105900522561999999e+00 1.742560443376000023e+00 2.463272648139999799e+00 5.719843801678999640e+00 1.859200928704999978e+00 7.192411284011000383e+00 1.823432133969999924e+00 1.874700856400000060e+00 7.253743408084000421e+00 5.835179495291000329e+00 1.930164474042000089e+00 2.378177124560000077e+00 2.075813274230999816e+00 5.722265768773000083e+00 2.341382429112000008e+00 5.769430739958999688e+00 5.784679665792999970e+00 7.264345868854999999e+00 1.735767788927000010e+00 5.663433442482999958e+00 7.237518373296000007e+00 5.816379756405000379e+00 5.737723364752000066e+00 1.901931078557000054e+00 1.950872968761000026e+00 7.596912503827000229e+00 8.882467496198000134e+00 1.820125926548000095e+00 2.167628990588000182e+00 2.528148722068999987e+00 2.124403062309999923e-01 1.927976478014000072e+00 2.625844610456999906e+00 2.257958340707999945e+00 3.766678924112000004e+00 9.079039943516999500e+00 1.605135669660999964e+00 5.413730177807999588e+00 2.362214442620000021e+00 6.653242265700000380e-02 5.410586219796000407e+00 2.088261220673000018e+00 6.060117284438000240e+00 7.607960450721000356e+00 9.026747027700000814e+00 5.931914779957000228e+00 1.895405069576999946e+00 1.938635679245999999e+00 3.893281132163000091e+00 1.720876523527000046e+00 2.102748553555000122e+00 5.768275058136000055e+00 3.757834382732999856e+00 9.022861630695999224e+00 6.153010080900999768e+00 5.719090402644999571e+00 1.715920007575999939e+00 3.939948410042000138e+00 5.783795019563999773e+00 7.054289779741999666e+00 1.660113429478000002e+00 7.539400016115999748e+00 4.385550013267000224e+00 2.153152595674999947e+00 1.626663164723000099e+00 6.650650529410000011e+00 7.542111094527999882e+00 1.967038705710999924e+00 6.621726082654999956e+00 1.794045066075000028e+00 3.766503674116000067e+00 4.244595040021000187e+00 2.120458319397999780e+00 5.947010553918000042e+00 6.448384239944999763e+00 7.551056778271999725e+00 5.683089051228000343e+00 6.829979605173000401e+00 5.746472520310000220e+00 1.163695686100000085e-02 4.245123810936999753e+00 5.599667029805000418e+00 1.912469656662999951e+00 7.020477725582000339e+00 3.726924050741000194e+00 1.872727462222000039e+00 6.919925712553999908e+00 5.476688917391999922e+00 3.888370942143000164e+00 4.160095003356000021e+00 5.569867114970000088e+00 5.787780997347000245e+00 7.156536343001000056e+00 3.738905873591999995e+00 5.785790552839999989e+00
1.501516325679999875e-01 3.894142340780999856e+00 3.693995442864999923e+00 4.778725144919000023e+00 7.563286404278000141e+00 1.500895957489999932e-01 4.448338055922000045e+00 7.675880318612000153e+00 3.730140666642999925e+00 4.994524044657000061e+00 3.705138854508999824e+00 3.760909229678000010e+00 5.605055207300000397e-01 2.587314928760000021e-01 1.186403034680000024e-01 4.672211260879999828e-01 7.650500489136000226e+00 3.601818095336999814e+00 1.154545025500000044e-01 3.825373115080000108e+00 1.185625713289999994e-01 5.278373165968999636e+00 3.838525558725999876e+00 7.510293158132999913e+00 2.674788500516999790e+00 2.145214609637999814e+00 1.730533054057000086e+00 2.453942940915000204e+00 5.738321364144000292e+00 1.851026517306999963e+00 7.231619904740999694e+00 1.814697289498000021e+00 1.898112962121000002e+00 7.278637989632000149e+00 5.847229231327999877e+00 1.956597024097999959e+00 2.394163183589999910e+00 2.100744635029000218e+00 5.739256263638999656e+00 2.339611082684000198e+00 5.791103992264000411e+00 5.798519414864999888e+00 7.297831664680000330e+00 1.717068094940999989e+00 5.679093512248000408e+00 7.259238974440999748e+00 5.826808844990000402e+00 5.762856515432999593e+00 1.903252446915000062e+00 1.845009601931000054e+00 7.599729483484000347e+00 8.910244388963999285e+00 1.803963824075000000e+00 2.168930841289999911e+00 2.543079527311999932e+00 2.038693411749999962e-01 1.952709265648999937e+00 2.655218493730000073e+00 2.212120389829999922e+00 3.760751476084000178e+00 9.096364424005999538e+00 1.593752812898999949e+00 5.389634559035999750e+00 2.348169759025000136e+00 1.506123628319999963e-01 5.442518936672000152e+00 2.101424433556999816e+00 6.070484737383999629e+00 7.644907021486000431e+00 9.027099619375000827e+00 5.937567964640000362e+00 1.923445113249000027e+00 1.936640671968000049e+00 3.956853055367000049e+00 1.707036737376999902e+00 2.069736643911999963e+00 5.775626080304999910e+00 3.798090632626000218e+00 9.073480508217999230e+00 6.170877708599999956e+00 5.745147827608000135e+00 1.803617154327000094e+00 3.937360489496000149e+00 5.835359479896999879e+00 7.078462319284000159e+00 1.647141053954999990e+00 7.580343040128999732e+00 4.399541532585000247e+00 2.208603797234999888e+00 1.646732377143999893e+00 6.670474982306999756e+00 7.592101553454999596e+00 1.959747417176999962e+00 6.719247251688000411e+00 1.732261607295999983e+00 3.824452745092000061e+00 4.292101799673999629e+00 2.203374571653000213e+00 5.956832342226999977e+00 6.401738923306999673e+00 7.576241556641000408e+00 5.665491433976000302e+00 6.752662654795000385e+00 5.847486864232999793e+00 7.653000015361000052e+00 4.249515887954999904e+00 5.647553772634999802e+00 1.920956445247999911e+00 7.048203678292000340e+00 3.717706089952999893e+00 1.868202278440999953e+00 6.946425207805000390e+00 5.487453095296999983e+00 3.806496837439000025e+00 4.190576708681000184e+00 5.519404701483000331e+00 5.797777366781000197e+00 7.187760130891000188e+00 3.777111625587000088e+00 5.774780569225000271e+00
1.547541727320000116e-01 3.905767178419000007e+00 3.692210990927999870e+00 4.789699683741000413e+00 7.571203016506999894e+00 1.602613961769999984e-01 4.427952887898999990e+00 7.689627669266999810e+00 3.734762810072000061e+00 5.000895184937999893e+00 3.727189908788000050e+00 3.766850701624000042e+00 5.131069438269999505e-01 2.121877226299999919e-01 1.254626825319999917e-01 4.509844258890000068e-01 7.669940428092999696e+00 3.576053649967000148e+00 9.114162044000000129e-02 3.839350473210000114e+00 1.265766371469999874e-01 5.278778446056000107e+00 3.826892673838000025e+00 7.545606082738999909e+00 2.690419307385000014e+00 2.154527290669999928e+00 1.730601999522999979e+00 2.450932558522000093e+00 5.764739182649000426e+00 1.856855894463000034e+00 7.278851185167000359e+00 1.823730213563999891e+00 1.918811265523000076e+00 7.310294764984000437e+00 5.839137539525999898e+00 1.963230491288999957e+00 2.437764574072999846e+00 2.105860637720000206e+00 5.754854491924000115e+00 2.345821341703000051e+00 5.819770965066999757e+00 5.798140045599000203e+00 7.336399635632999683e+00 1.707125504795000026e+00 5.692030118884000345e+00 7.287247081911999658e+00 5.829986331308999681e+00 5.790955967091999668e+00 1.929014454752000063e+00 1.786341261787000034e+00 7.572197119550000188e+00 9.003480086729000575e+00 1.760903972037999976e+00 2.157783628920999952e+00 2.548981759165000138e+00 1.739331042260000015e-01 1.978472355240000091e+00 2.634280889749000210e+00 2.197185591223000056e+00 3.753215638767000151e+00 9.107952534583999338e+00 1.592984114752999947e+00 5.382620042429000051e+00 2.335893016054999993e+00 1.939792483539999890e-01 5.508352597822000263e+00 2.096311004393999866e+00 6.095884834322999879e+00 7.666891767048999995e+00 9.023169996397999881e+00 5.944663106832000388e+00 1.953899773594999889e+00 1.935049444651000039e+00 4.002970081125999613e+00 1.694169443530999963e+00 2.042644276724999930e+00 5.770235574963000325e+00 3.835779242790000154e+00 9.073305331324000633e+00 6.149566053581000169e+00 5.771587542253000080e+00 1.835660592076000075e+00 3.947619812219000046e+00 5.888939684940999619e+00 7.084609822695999704e+00 1.643287279975000015e+00 7.612417262193999612e+00 4.458780754075999830e+00 2.266413501495999849e+00 1.641787611770999966e+00 6.647686479695999573e+00 7.635119467661000137e+00 1.964723556018999950e+00 6.774241807565999807e+00 1.702651137713000029e+00 3.901676685483999929e+00 4.255316282715000398e+00 2.287256287018999856e+00 5.964474108017999932e+00 6.353019814109000407e+00 7.585544428572999820e+00 5.626489189996999762e+00 6.762927209815999596e+00 5.881172530836000334e+00 7.606743751036000312e+00 4.214978244019000009e+00 5.691388310542000006e+00 1.934894364310000059e+00 7.054286290158000128e+00 3.720500198712000106e+00 1.855590778307999900e+00 6.953755064677999975e+00 5.544304251495000280e+00 3.772196420369999803e+00 4.171973230173000147e+00 5.494115792157000300e+00 5.795397161671999697e+00 7.206352024657999955e+00 3.796281384147000004e+00 5.764313209187999831e+00
1.567917559160000029e-01 3.912784488314000164e+00 3.686754079452999822e+00 4.797634454865000286e+00 7.577417742156000280e+00 1.648309989229999883e-01 4.407742347362000324e+00 7.699588998201999601e+00 3.738711094716999916e+00 5.003675221914999582e+00 3.751081467948000014e+00 3.769374446382999899e+00 4.519278875320000277e-01 1.423506480460000057e-01 1.424949986350000086e-01 4.395945265589999984e-01 7.694668487354999975e+00 3.548003888672000006e+00 7.045629087499999388e-02 3.849601872493999988e+00 1.371008951209999882e-01 5.279046651266000367e+00 3.808117452042000028e+00 7.590623799863999821e+00 2.692627112210999929e+00 2.134508242932000144e+00 1.737451296933000044e+00 2.445690640027000207e+00 5.805272489127999869e+00 1.869653392270999914e+00 7.341094423074999931e+00 1.836554945387000037e+00 1.933396455452000007e+00 7.325344007340000019e+00 5.825115731118000184e+00 1.953431253438000059e+00 2.493145140005000204e+00 2.097909831887999843e+00 5.767615333098000008e+00 2.355886422020000204e+00 5.850223492189999597e+00 5.789666578173999767e+00 7.373639939301999568e+00 1.702775764335000108e+00 5.708393120162000400e+00 7.309896440082000346e+00 5.827682173964999990e+00 5.810861259810000234e+00 1.979718907157000052e+00 1.785930565164999928e+00 7.587529878963000129e+00 9.095212408997999987e+00 1.710780015912999996e+00 2.129748679908999964e+00 2.549293841548999850e+00 1.526619135070000077e-01 1.997736247036000057e+00 2.577097082344999901e+00 2.222389436853000166e+00 3.720458781430000084e+00 9.135251168985000447e+00 1.598004904081000044e+00 5.396770362544000221e+00 2.341165812137000035e+00 1.435650823219999928e-01 5.576705770880000301e+00 2.075379940354999952e+00 6.134961142153000146e+00 7.665750296933000030e+00 9.050531928247000479e+00 5.954917404679999748e+00 1.974477014452999946e+00 1.937274716679000086e+00 3.979541613484999907e+00 1.684572243457999940e+00 2.022403910727000209e+00 5.764780960040000402e+00 3.858470176740000035e+00 9.063525779295000362e+00 6.105118919914000131e+00 5.799527333027000076e+00 1.800756620950000109e+00 3.978496250666000211e+00 5.932582425691999894e+00 7.080037837513000198e+00 1.653611504246000008e+00 7.635381746869000175e+00 4.489737460107999567e+00 2.308761212067000024e+00 1.618483913311999922e+00 6.605526186116000176e+00 7.647004369931999612e+00 1.975712956873000081e+00 6.771915134463999841e+00 1.735975184436000074e+00 3.911735409135999930e+00 4.215699110303999575e+00 2.364665743895999928e+00 5.974808616874000222e+00 6.335804100876999634e+00 7.569908043078999782e+00 5.593940647146999900e+00 6.774013110531999615e+00 5.866771088346999896e+00 7.582741090564000253e+00 4.179957598307000310e+00 5.716453110897999679e+00 1.958832851256000041e+00 7.055340021779000104e+00 3.736666711048000078e+00 1.841313305176000004e+00 6.943790917781000438e+00 5.627837635310999786e+00 3.799533186086000214e+00 4.119405870601999808e+00 5.508008366362999730e+00 5.781037169535999887e+00 7.214214461292000280e+00 3.796400305305000167e+00 5.755667158045000065e+00
1.587395794060000032e-01 3.914243172223999867e+00 3.678974099653999907e+00 4.801834176247999686e+00 7.581223153987999730e+00 1.635771041240000057e-01 4.389745885522000179e+00 7.704816677776999967e+00 3.741386705037000215e+00 5.002481392364000357e+00 3.776614460625999925e+00 3.767078659596000190e+00 3.922585917160000268e-01 6.120093679099999906e-02 1.671926466989999971e-01 4.355671780440000251e-01 7.721350371609999819e+00 3.521985317337000154e+00 6.193847294500000322e-02 3.856402455593999967e+00 1.460776779469999953e-01 5.279075265850999621e+00 3.783322128392000216e+00 7.643191566518000357e+00 2.686964495116999974e+00 2.101643170197000199e+00 1.744488868786000069e+00 2.422662176562000003e+00 5.845531176981999977e+00 1.876538676218000079e+00 7.411085451813000269e+00 1.839584700232000047e+00 1.941048383599000005e+00 7.321822549420000215e+00 5.814777670982000046e+00 1.939247660858000044e+00 2.529233894476000000e+00 2.086285616153999989e+00 5.776705637087999889e+00 2.354613048138999964e+00 5.873352888553999840e+00 5.780817113770999605e+00 7.402056740955000436e+00 1.702707022126999981e+00 5.724640722416999949e+00 7.316921061301999707e+00 5.817745552696999667e+00 5.812212672851999606e+00 2.045595862310999991e+00 1.821389655669999996e+00 7.636003190778000160e+00 9.127872622861000096e+00 1.672541721131000081e+00 2.083075184491999909e+00 2.543694873289000125e+00 1.408324296550000077e-01 2.011773503474000080e+00 2.506064873713000019e+00 2.264582807607999904e+00 3.710932181596000135e+00 9.174163804430000013e+00 1.599085514815999920e+00 5.431916772905999835e+00 2.380188271125000199e+00 7.806175338399999608e-02 5.616474081353000081e+00 2.047334619978999903e+00 6.178555026130999828e+00 7.674607260920000229e+00 9.078544323002999406e+00 5.966537532545999944e+00 1.975142240415000083e+00 1.949649522807999968e+00 3.914895332856000110e+00 1.683551378213999916e+00 2.006397694872999793e+00 5.768445812521999727e+00 3.835277343112999837e+00 9.094954513368000093e+00 6.061000121075999836e+00 5.828660269509000180e+00 1.723200368731000021e+00 3.968039486849999964e+00 5.950865755487999564e+00 7.076084139926000383e+00 1.676206311729000031e+00 7.640185067158999921e+00 4.451717331169000147e+00 2.316417805018000209e+00 1.592276988517000058e+00 6.576192966218999736e+00 7.629752469570999729e+00 1.981958289005000040e+00 6.733572897422000381e+00 1.829687543786999937e+00 3.854334237513000083e+00 4.279459571672999729e+00 2.432178603916999915e+00 5.989509166654999994e+00 6.371093047731999803e+00 7.565399037363000012e+00 5.593766352105999928e+00 6.773716450166999969e+00 5.812080068820000278e+00 7.646101966932000060e+00 4.180256288529999864e+00 5.719107289052000276e+00 1.991461015402999912e+00 7.073163808012999709e+00 3.763859132064999891e+00 1.834540372646999984e+00 6.923578827755999754e+00 5.706665319400999969e+00 3.840899832898000188e+00 4.120007983954000252e+00 5.548075605480000227e+00 5.755492375265999883e+00 7.212253151306000198e+00 3.764044926602999830e+00 5.750203078909000176e+00