-3.035733295070000167e+04
-3.035651222380000036e+04
-3.035636299720000170e+04
-3.035635396060000130e+04
-3.035640294939999876e+04
-3.035630482530000154e+04
-3.035600352919999932e+04
-3.035596236829999907e+04
-3.035595704750000004e+04
-3.035602888779999921e+04
-3.035587369910000052e+04
-3.035588164220000181e+04
-3.035599406789999921e+04
-3.035556196020000061e+04
-3.035544205339999826e+04
-3.035512921650000135e+04
-3.035544033710000076e+04
-3.035471433350000007e+04
-3.035511065170000074e+04
-3.035511622530000022e+04
-3.035464679650000107e+04
-3.035415835169999991e+04
-3.035406807670000126e+04
-3.035434481320000123e+04
-3.035435619669999869e+04
-3.035407661880000160e+04
-3.035346055060000072e+04
-3.035366287960000045e+04
-3.035387727810000069e+04
-3.035362307769999825e+04
-3.035353679170000032e+04
-3.035345892370000001e+04
-3.035382226399999854e+04
-3.035398542829999860e+04
-3.035452278110000043e+04
-3.035490981599999941e+04
-3.035527062410000144e+04
-3.035532254180000018e+04
-3.035553369160000148e+04
-3.035542469379999966e+04
-3.035583599740000136e+04
-3.035576408449999872e+04
-3.035606769690000147e+04
-3.035596970140000121e+04
-3.035615772099999958e+04
-3.035603104660000099e+04
-3.035605130750000171e+04
-3.035605284250000113e+04
-3.035619217410000056e+04
-3.035627505440000095e+04
-3.035639404049999939e+04
-3.035627973230000134e+04
-3.035641028870000082e+04
-3.035634232229999907e+04
-3.035627261799999906e+04
-3.035627930600000036e+04
-3.035634909740000148e+04
-3.035626909660000092e+04
-3.035655666070000007e+04
-3.035634058599999844e+04
-3.035621932509999897e+04
-3.035630918369999927e+04
-3.035656204979999893e+04
-3.035610058710000158e+04
-3.035577581980000105e+04
-3.035588383650000105e+04
-3.035567605750000075e+04
-3.035521483430000080e+04
-3.035521957019999900e+04
-3.035520289390000107e+04
-3.035527786189999824e+04
-3.035476656680000087e+04
-3.035431347290000122e+04
-3.035453088660000139e+04
-3.035447106989999884e+04
-3.035393800249999913e+04
-3.035391903950000051e+04
-3.035431484740000087e+04
-3.035415886469999896e+04
-3.035436201250000158e+04
-3.035490154999999868e+04
-3.035441498009999850e+04
-3.035396078140000100e+04
-3.035461892599999919e+04
-3.035494042830000035e+04
-3.035468219939999835e+04
-3.035456473209999967e+04
-3.035469819239999924e+04
-3.035460269609999887e+04
-3.035563752359999853e+04
-3.035513744030000089e+04
-3.035541763459999856e+04
-3.035551867889999994e+04
-3.035576621069999965e+04
-3.035537934229999883e+04
-3.035579352959999960e+04
-3.035587760859999980e+04
-3.035589845599999899e+04
-3.035613016789999892e+04
-3.035608225139999922e+04
-3.035619158370000150e+04
-3.035644640620000064e+04
-3.035629257750000033e+04
-3.035619153319999896e+04
-3.035634337460000097e+04
-3.035649010080000153e+04
-3.035638371180000104e+04
-3.035651631450000059e+04
-3.035637955739999961e+04
-3.035623636139999871e+04
-3.035642648090000148e+04
-3.035611918710000100e+04
-3.035624603890000071e+04
-3.035615563180000026e+04
-3.035609386280000035e+04
-3.035573477679999996e+04
-3.035620617320000019e+04
-3.035560471319999851e+04
-3.035573782909999863e+04
-3.035547889109999960e+04
-3.035539410530000168e+04
-3.035515643389999968e+04
-3.035516244649999862e+04
-3.035484285420000015e+04
-3.035521882729999925e+04
-3.035540009089999876e+04
-3.035495476939999935e+04
-3.035484576210000159e+04
-3.035459039839999969e+04
-3.035393440740000005e+04
-3.035389380370000072e+04
-3.035418807240000024e+04
-3.035410806679999951e+04
-3.035352321840000150e+04
-3.035419382010000118e+04
-3.035493403430000035e+04
-3.035471189560000130e+04
-3.035464948670000012e+04
-3.035493612099999882e+04
-3.035494331539999985e+04
-3.035525215039999966e+04
-3.035527494659999866e+04
-3.035541252449999956e+04
-3.035559094520000144e+04
-3.035546426559999964e+04
-3.035520879200000127e+04
-3.035535370999999941e+04
-3.035568204849999893e+04
-3.035627461209999819e+04
-3.035643373620000057e+04
-3.035609590100000059e+04
-3.035613533960000132e+04
-3.035606714650000140e+04
-3.035624028520000138e+04
-3.035619908569999825e+04
-3.035647598909999942e+04
-3.035646050340000147e+04
-3.035655666769999880e+04
-3.035636906599999929e+04
-3.035630774329999986e+04
-3.035629699450000044e+04
-3.035639698050000152e+04
-3.035619856739999886e+04
-3.035627479840000160e+04
-3.035634830050000164e+04
-3.035612441350000154e+04
-3.035616815399999905e+04
-3.035590103169999929e+04
-3.035581708269999945e+04
-3.035584922870000082e+04
-3.035566610859999855e+04
-3.035571339599999919e+04
-3.035515770170000178e+04
-3.035534372599999915e+04
-3.035501459489999979e+04
-3.035523082620000059e+04
-3.035529113470000084e+04
-3.035483393459999934e+04
-3.035487409280000065e+04
-3.035456365179999921e+04
-3.035465996010000163e+04
-3.035420295529999930e+04
-3.035452011219999986e+04
-3.035398304080000162e+04
-3.035429783959999986e+04
-3.035394271239999944e+04
-3.035434587710000051e+04
-3.035399149670000043e+04
-3.035420244019999882e+04
-3.035465495110000120e+04
-3.035517026360000091e+04
-3.035493936160000158e+04
-3.035496478980000029e+04
-3.035517836339999849e+04
-3.035532359949999955e+04
-3.035495397750000120e+04
-3.035546427140000014e+04
-3.035575538529999903e+04
-3.035599960740000097e+04
-3.035589437209999960e+04
-3.035618078830000013e+04
-3.035606872870000007e+04
-3.035600973840000006e+04
-3.035591357350000180e+04
-3.035584898619999876e+04
-3.035596447510000144e+04
-3.035613253289999921e+04
-3.035622810329999993e+04
-3.035615859289999935e+04
-3.035627874209999936e+04
-3.035643211829999927e+04
-3.035648649160000059e+04
-3.035638641360000111e+04
-3.035622217929999897e+04
-3.035630791949999912e+04
-3.035619617080000171e+04
-3.035597915559999819e+04
-3.035602074839999841e+04
-3.035591597159999947e+04
-3.035592061449999892e+04
-3.035578198939999857e+04
-3.035582903040000019e+04
-3.035554611350000050e+04
-3.035513727909999943e+04
-3.035529846610000095e+04
-3.035544931240000005e+04
-3.035529498130000138e+04
-3.035494015729999956e+04
-3.035488722720000078e+04
-3.035444474940000146e+04
-3.035448891310000181e+04
-3.035450892229999954e+04
-3.035456762710000112e+04
-3.035451531569999861e+04
-3.035463869329999943e+04
-3.035483022260000143e+04
-3.035424885150000046e+04
-3.035381323500000144e+04
-3.035443874629999846e+04
-3.035497061449999819e+04
-3.035480234750000091e+04
-3.035443612289999874e+04
-3.035450124919999871e+04
-3.035490238479999971e+04
-3.035513949760000105e+04
-3.035518780830000105e+04
-3.035503452119999929e+04
-3.035486633589999838e+04
-3.035541559319999942e+04
-3.035547801560000153e+04
-3.035560001130000092e+04
-3.035568180139999822e+04
-3.035591101219999837e+04
-3.035598734279999917e+04
-3.035618349490000037e+04
-3.035632277969999996e+04
-3.035619311350000135e+04
-3.035623016600000119e+04
-3.035624262879999878e+04
-3.035634460590000162e+04
-3.035641597449999972e+04
-3.035616205439999976e+04
-3.035638149139999950e+04
-3.035616036940000049e+04
-3.035615978230000110e+04
-3.035597031689999858e+04
-3.035637886950000029e+04
-3.035633842720000030e+04
-3.035610398500000156e+04
-3.035612415790000159e+04
-3.035608896000000095e+04
-3.035625071400000161e+04
-3.035594467950000035e+04
-3.035573963260000164e+04
-3.035551243479999903e+04
-3.035537448030000087e+04
-3.035576528669999971e+04
-3.035544209530000080e+04
-3.035526964289999887e+04
-3.035497231399999873e+04
-3.035498615770000106e+04
-3.035503013550000105e+04
-3.035510120810000080e+04
-3.035481860329999836e+04
-3.035460700179999913e+04
-3.035439460859999963e+04
-3.035457460659999924e+04
-3.035439919359999840e+04
-3.035439507020000019e+04
-3.035410103979999985e+04
-3.035436711890000151e+04
-3.035406791420000081e+04
-3.035431223279999904e+04
-3.035460957630000121e+04
-3.035489712829999917e+04
-3.035476353169999857e+04
-3.035495341539999936e+04
-3.035482715190000090e+04
-3.035526775600000110e+04
-3.035507006520000141e+04
