1.866260050859999964e-01 9.525052737899999955e-02 -2.010057609910000098e-01 -5.313412513500000156e-02 -1.095528887470000046e-01 8.418597217999999882e-03 4.032075977999999977e-02 -2.682374524009999983e-01 -1.302743905169999883e-01 -1.814050255809999956e-01 3.312452025809999867e-01 5.721888343000000425e-03 -2.081335947999999811e-03 -3.340512666800000280e-02 -3.518826945800000022e-02 -9.401654394599999465e-02 -2.205975491899999849e-02 -3.457906581999999757e-02 -2.576259219700000047e-02 4.758683035499999825e-02 -2.116605573399999926e-02 -8.721393807299999967e-02 1.086709096899999942e-02 -5.283299880999999670e-02 -7.031301257169999541e-01 3.603180972800000270e-01 1.472455529059999990e-01 -2.063161208419999892e-01 8.436049136319999642e-01 2.071989649709999881e-01 -3.805826463790000225e-01 -4.258226149289999762e-01 9.707568706800000224e-02 4.894538258550000243e-01 1.249754597069999973e-01 4.651087259500000237e-01 -1.851956074040000122e-01 3.068411883050000122e-01 -5.409649583500000108e-02 -3.508892347370000109e-01 9.295981292939999863e-01 -1.130599131190000023e-01 2.689468147349999838e-01 -3.756544543690000237e-01 2.761608436079999729e-01 -1.125928796381999941e+00 7.102030947500000135e-02 -3.116284406500000048e-01 1.647283676859999935e-01 -2.982651026140000217e-01 2.050172226520000085e-01 1.684331386279999954e-01 1.936008682239999945e-01 -7.314420151000000127e-03 4.903561778439999852e-01 -5.261454087299999999e-02 -8.582822354999999903e-02 3.492328454340000166e-01 -1.637653186399999974e-02 5.017467543399999758e-02 -3.871868038149999802e-01 2.731205887029999890e-01 2.586081199909999739e-01 5.353977724159999507e-01 -4.333177141769999907e-01 2.745464325699999847e-02 2.415893220679999898e-01 -2.375322582570000007e-01 -7.922141969899999803e-02 -6.375963102599999655e-01 -1.221749995040000009e-01 -1.703149512599999929e-02 1.383463920820000026e-01 -5.569970631659999505e-01 -7.897171112999999687e-02 -9.050509467999999849e-03 -3.368539199310000010e-01 -2.931324200120000167e-01 7.854713081230000338e-01 7.517796041600000034e-02 3.696093093999999746e-02 -2.676047025999999870e-02 -7.078095108690000137e-01 6.488070765299999709e-02 6.429531215099999752e-02 1.573763699450000109e-01 3.882882042690000146e-01 1.717188858679999930e-01 -7.611352138900000230e-02 1.578497562900000040e-01 1.843901764010000000e-01 3.342249293360000095e-01 -1.428629908700000117e-01 -2.082196457250000132e-01 1.684607668349999976e-01 -7.547822422619999694e-01 -2.622739913650000143e-01 -6.997579808100000409e-02 -1.175807113949999955e-01 4.169520581600000275e-02 3.537583219359999864e-01 3.865406934300000263e-02 -4.108056884200000231e-02 2.525525187850000131e-01 1.394883252799999918e-02 -5.715002751800000308e-02 5.939022391999999873e-02 5.385394314000000425e-03 1.603631293459999996e-01 -1.243369391100000027e-01 -2.106302746699999923e-02 5.607875268000000329e-02 6.595460654699999981e-02 5.032947788299999697e-02 1.939073243980000139e-01 -2.933366618400000056e-02 1.295451637460000027e-01 2.936229031989999738e-01 -7.584910455729999557e-01 -8.240740576699999431e-02
2.198381063529999957e-01 3.525206895099999849e-01 -2.655596362920000231e-01 -3.054549700800000128e-02 -1.752978123950000022e-01 -6.609043235700000352e-02 2.084271928979999911e-01 -6.137270318230000354e-01 -2.825229708299999837e-02 -6.699932471980000193e-01 1.008207395352000102e+00 8.561802220700000243e-02 -4.263275868500000093e-02 -1.342645153810000103e-01 1.042471239929999988e-01 -1.334019135420000113e-01 -6.113035224099999665e-02 -1.942460383279999980e-01 1.840046588320000120e-01 1.207020312250000060e-01 -7.015641662400000367e-02 -3.116895671250000110e-01 -1.888564410590000131e-01 2.237053405999999897e-02 -1.997995439772999982e+00 2.258313539160000105e-01 -3.682733738760000097e-01 4.953878342200000034e-02 1.272463245725000025e+00 -5.192495671150000325e-01 -7.515853618169999750e-01 -1.427173058433000019e+00 9.034927097700000409e-02 1.584817788489999990e-01 1.248104293701999934e+00 1.167083994825000026e+00 9.419335854160000299e-01 1.964252270622000029e+00 8.828879405420000381e-01 3.790358016250000017e-01 -1.819630730900000104e-01 6.913793477370000495e-01 -8.472242228699999878e-02 -5.965456590430000539e-01 1.712423663130000051e+00 1.652742289580000079e-01 7.023055186700000174e-01 -1.802026761222000006e+00 1.692159280370000018e-01 -6.493919757070000243e-01 -7.291850293289999785e-01 3.709003421270000156e-01 2.845260667860000092e-01 7.438813268600000250e-02 3.422324143039999766e-01 -9.079447891599999598e-02 1.841210455950000047e-01 3.493812095039999788e-01 -3.263556199050000051e-01 1.169745842291999960e+00 -4.670696513659999827e-01 2.857168384830000019e-01 -5.167885636600000332e-02 7.956733643699999414e-02 -7.202433182040000048e-01 -1.498672733120000045e-01 3.091879213109999802e-01 -1.313418576910000135e-01 9.869761347319999656e-01 -9.096937824969999475e-01 -3.638513660839999830e-01 -8.617048094699999994e-02 -1.114123158719999979e-01 -6.840556419850000180e-01 -8.920845892600000326e-02 -1.767762619680000036e-01 1.679634270760000103e-01 -1.661255610261999971e+00 -6.070318501860000326e-01 7.287345705599999890e-02 5.123770431400000158e-02 4.517094688500000177e-01 -1.531649722163000105e+00 2.139819542209999981e-01 2.344470691799999951e-01 3.104552750899999825e-01 -9.317204805200000051e-01 1.549688929486999989e+00 2.685238365759999857e-01 2.941327173200000145e-01 6.136702986159999762e-01 1.248479629750000042e-01 -5.280288420959999840e-01 4.853661908649999912e-01 2.432102684590000119e-01 -1.194098116002999976e+00 -1.585240649783000055e+00 1.640319803420000055e-01 -5.762918602280000524e-01 4.319189012719999998e-01 4.809793631420000160e-01 4.217307195939999920e-01 -7.866274887200000454e-02 7.474759557769999896e-01 7.831312976809999826e-01 -4.323289881199999796e-01 1.218216951199999933e-02 -3.112946799099999828e-02 3.753109673619999809e-01 -3.637841268820000140e-01 1.325886986120000111e-01 3.678536268009999777e-01 -1.914019995269999885e-01 5.888461159190000460e-01 -4.173103215610000083e-01 -1.936468735569999988e-01 7.496302786200000068e-02 3.711080371550000145e-01 -1.431698475908999901e+00 -3.897142894219999820e-01
1.260172626430000054e-01 2.704983965709999993e-01 -4.541861374300000254e-01 2.958500317100000096e-02 -9.987566847300000106e-02 -5.599453484300000172e-02 3.864659914970000054e-01 -6.113103415880000169e-01 -3.344920753399999863e-02 -1.139604992508000070e+00 1.484178419862000053e+00 -9.151046435500000131e-02 -1.404469159900000041e-01 -1.942891027449999974e-01 1.699211653330000016e-01 -1.615387383530000054e-01 -1.688675855199999951e-02 -2.449532083260000104e-01 2.808050110299999957e-01 7.558070669100000472e-02 -7.366116166099999363e-02 -4.360756320849999979e-01 -3.653458350870000260e-01 2.251206551720000004e-01 -4.077177177640000094e-01 4.381805176149999870e-01 -7.229721153760000352e-01 7.863364237900000164e-02 3.354054258529999832e-01 -8.767942987360000107e-01 -2.467210123709999980e-01 -1.643740687386000099e+00 2.359102916570000041e-01 -1.090535028704000098e+00 1.375768543494999996e+00 1.243123218835000099e+00 7.403926421609999808e-01 2.054852737388999984e+00 1.021448976700999989e+00 1.258545916840000112e-01 -1.125141382932999923e+00 6.131240400999999896e-01 -4.131181569590000047e-01 -8.185359776430000123e-01 1.464549313897000049e+00 3.949217874870000200e-01 6.609353388730000445e-01 -1.906858181777999928e+00 2.528249982400000012e-02 -1.002459787255000068e+00 -1.170381724139999968e-01 4.705365008699999990e-02 2.201923084190000046e-01 1.348462575299999924e-02 4.039649576499999839e-02 2.495453362220000082e-01 3.053697947880000263e-01 2.120229384750000057e-01 -6.291376741559999708e-01 6.446108054450000457e-01 1.270165249109999894e-01 7.230618341700000007e-02 -2.880392830310000152e-01 -3.328869050289999798e-01 -8.324059184100000008e-01 -1.680051491170000133e-01 2.765184083619999789e-01 -2.132202722679999995e-01 2.645975879810000264e-01 1.088361316149999980e-01 -2.416021426230000047e-01 -5.694317402400000255e-02 -1.536866154400000073e-01 -2.207576129699999889e-01 -9.135767356000000505e-02 -2.649773514629999993e-01 3.085660207059999771e-01 -3.287576246930000168e-01 -9.727366519190000504e-01 -5.751015660599999996e-02 7.251651131700000141e-02 1.084888753266000094e+00 -2.253640903709999976e-01 3.321334324949999917e-01 1.374274624200000072e-01 2.837880837899999786e-01 -1.066202176196999973e+00 -2.446456404999999834e-02 2.714092053370000257e-01 5.656738384460000546e-01 7.064450962470000261e-01 -1.425883122440000095e-01 -6.128459342730000481e-01 1.194317510327000065e+00 -1.725140264760000042e-01 -5.892610390560000244e-01 -8.698538797699999492e-01 5.076062042640000493e-01 -6.025720092259999605e-01 4.985676062700000188e-01 -2.513499532610000142e-01 4.788505999050000073e-01 1.475286917400000022e-02 8.530048789780000362e-01 2.175315894700000086e-01 -2.739939934669999855e-01 1.033182956500000027e-01 -8.396477834599999635e-02 4.420945738870000197e-01 -2.773362378209999757e-01 1.599106396539999864e-01 4.618603647619999863e-01 -1.857300617569999923e-01 8.715050549399999680e-01 -8.439740742919999983e-01 -3.844215268189999923e-01 6.862844499000000063e-03 2.321754127220000130e-01 1.463869243110000051e-01 -4.408786624100000107e-01
-3.120022592000000136e-02 8.435042177000000307e-02 -5.883101394219999447e-01 5.436432027199999961e-02 -3.548413786500000111e-02 -1.460774512359999944e-01 4.453146321629999904e-01 -4.254501660660000018e-01 3.864343048999999922e-03 -1.303595832435000101e+00 1.617010134880999983e+00 -2.900507000340000197e-01 -2.387569504289999978e-01 -2.973480732220000200e-01 1.773794461690000046e-01 -1.295445866909999966e-01 5.622571288599999967e-02 -2.112811052399999889e-01 2.587482533129999984e-01 2.430566439499999912e-02 -3.492659747600000003e-02 -3.443453453940000242e-01 -3.584225069140000164e-01 4.288124474680000131e-01 8.966528249009999563e-01 6.288752531450000349e-01 -5.149613768990000118e-01 -3.828334684790000164e-01 -5.141593627180000015e-01 -1.047808211935999934e+00 6.137560578399999800e-01 -9.650978599639999933e-01 2.510770564809999827e-01 -1.452351861192999971e+00 6.336219919059999928e-01 5.810352394000000142e-01 -1.129656651674000090e+00 6.240634389200000465e-01 2.350040896649999989e-01 -5.133489562659999672e-01 -1.012833908995999899e+00 3.671180840289999803e-01 2.932390880629999752e-01 -7.501473956999999970e-01 5.648424586750000476e-01 -2.850865654210000266e-01 1.981595271119999946e-01 -4.901247148719999891e-01 -2.367773384390000069e-01 -1.076145332800999999e+00 1.046642638698999983e+00 -4.211630237549999767e-01 -2.786919330899999964e-02 -2.087768797360000095e-01 -1.922022993910000033e-01 3.838480778210000000e-01 2.674073000700000202e-01 -2.703808997800000169e-02 -6.440835433320000192e-01 -6.762565684460000170e-01 4.205481666870000135e-01 -1.216106644829999944e-01 -3.384874442940000172e-01 -5.186000441460000276e-01 1.474089796780000128e-01 -2.741741697000000047e-03 1.067976809160000040e-01 -2.112133067610000026e-01 -5.259211252050000063e-01 7.387590883269999908e-01 -3.141145357899999963e-02 5.731736167100000279e-02 -8.492061807999999601e-02 8.283669097899999667e-02 -5.088818223899999743e-02 -3.986632470570000142e-01 1.963241600939999998e-01 1.202259199363000075e+00 3.883179221279999815e-01 -8.286860994000000424e-02 3.768310878799999847e-02 1.094089743267999904e+00 6.706314594979999599e-01 3.274167942760000116e-01 -1.543490579740000035e-01 1.324878480720000085e-01 7.950560813700000007e-02 -1.139800827675000017e+00 1.775052720280000107e-01 5.488598117380000252e-01 3.771743159479999941e-01 -1.253507320389999902e-01 -3.714662874310000196e-01 1.239065139962000073e+00 -6.434122772560000314e-01 6.191143923299999990e-02 1.663093013511999896e+00 6.500647918399999892e-01 -1.157151690780000020e-01 -7.006587684100000490e-02 -5.490506589710000274e-01 1.349755088880000009e-01 -3.711145442600000122e-02 5.737625346379999769e-01 -2.315588519990000038e-01 4.418504720540000208e-01 1.965733250480000138e-01 -9.017001620999999523e-02 2.951451651259999753e-01 -1.435768013909999863e-01 1.417876334070000133e-01 1.014390646790000045e-01 -5.334368645499999728e-02 -1.652214518529999954e-01 -1.961103667309999909e-01 -5.444598214829999838e-01 -7.633355694000000524e-02 -1.408322607630000112e-01 1.535284208533999939e+00 -3.378219969630000263e-01
-2.564138135719999934e-01 3.509053596399999697e-02 -6.027980934919999756e-01 -1.229446312200000065e-02 3.280651469299999956e-02 -3.657644988270000175e-01 3.002777716210000003e-01 -1.991109684300000071e-01 1.039749808529999986e-01 -9.892679521680000088e-01 1.285192477415999956e+00 -3.490240763479999786e-01 -3.372323656280000193e-01 -4.954029458340000192e-01 2.148034737249999993e-01 -5.686645097200000026e-02 8.717206231700000418e-02 -1.790608506259999955e-01 1.390932375389999920e-01 4.190261441700000172e-02 3.555963038599999765e-02 -1.550189954990000007e-01 -2.390369028090000014e-01 5.061541135829999982e-01 9.356822844709999920e-01 1.248283875210000060e-01 5.008185970600000092e-02 -5.942086064970000248e-01 -6.061291343439999535e-01 -3.298754797030000185e-01 1.171851846058999946e+00 2.712447523520000181e-01 3.580939313409999825e-01 2.594933224950000117e-01 -5.965291213629999589e-01 -3.695680620630000246e-01 -7.513709026010000347e-01 -4.775313869119999777e-01 -8.007497736799999710e-02 -9.350492727020000006e-01 -4.248135035000000226e-01 -3.009138046120000132e-01 1.210799598092000107e+00 3.718501863259999762e-01 -2.855727859319999729e-01 -8.706909722800000584e-02 -5.270122287849999809e-01 1.383562998091000029e+00 -2.214745502830000046e-01 -7.695302963939999463e-01 4.068708248260000104e-01 -2.684627746630000034e-01 -3.998014737639999927e-01 -3.616641133030000232e-01 -3.007887916920000126e-01 -1.958429974379999883e-01 1.967747009459999974e-01 -3.988536143040000148e-01 -4.501372972150000096e-01 -6.611295937329999539e-01 5.270635095699999911e-02 -9.151089297400000211e-02 -1.518016503740000078e-01 -4.492651738089999958e-01 1.352590047147000041e+00 3.351872851430000022e-01 -1.327927834079999925e-01 2.066181622800000034e-02 1.671213230399999985e-02 -2.176071436639999968e-01 1.991825678599999996e-02 1.818411142839999883e-01 -1.131395590599999952e-02 6.019998704600000305e-01 2.517875787799999862e-02 -2.653279853230000040e-01 -8.689132059500000171e-02 6.472906368540000122e-01 1.257850598466000003e+00 -9.837921294800000549e-02 6.743868057999999853e-03 4.968390036740000237e-01 1.863383898809999883e-01 2.618643190500000162e-01 -3.942963717679999758e-01 4.554723699000000348e-03 8.786186506269999530e-01 -6.265641347079999868e-01 1.316472214989999889e-01 2.052113011660000041e-01 -2.750986497849999823e-01 3.395424398790000131e-01 5.633324930000000287e-04 6.218254244519999530e-01 -6.123712585230000061e-01 6.649072767220000069e-01 1.529698626789999905e+00 4.936096548019999752e-01 1.341057965119999973e-01 -6.661375427100000302e-01 2.641557811420000013e-01 -3.185224373250000185e-01 -2.048491869150000089e-01 1.039228532630000063e-01 -7.989387231500000297e-02 4.251753109390000174e-01 2.360882441000000109e-01 -3.522846364400000069e-02 -3.644067048199999687e-02 -2.340985233000000137e-02 4.794784358000000329e-02 -4.024786485230000266e-01 1.849263134490000127e-01 -1.807522808799000069e+00 9.469797200989999997e-01 -4.904613512139999743e-01 -1.301874809799999921e-01 -3.017291977220000199e-01 5.938590020299999717e-01 -2.534457786830000003e-01
-5.038777614760000523e-01 2.495799783900000055e-02 -5.910638001000000363e-01 -6.292374024600000393e-02 1.799947336030000011e-01 -5.725195547570000043e-01 1.950187790729999981e-01 -5.337665555000000069e-03 1.872751149069999954e-01 -4.945926028629999971e-01 8.292479934599999991e-01 -2.923488369009999976e-01 -4.806574611459999979e-01 -7.279148115050000367e-01 2.725376307019999889e-01 2.185761095199999920e-02 1.168350888849999936e-01 -1.455240928169999892e-01 7.448976896999999833e-03 5.522570980699999937e-02 1.286699749690000116e-01 -1.382487413700000077e-02 -1.471678360629999904e-01 4.764314068709999961e-01 -1.514404825279999922e-01 -8.589892488529999870e-01 6.792420329959999448e-01 -1.881082086300000025e-02 -1.983353277000000081e-01 5.559701314420000262e-01 8.438507927110000528e-01 1.093832462758000057e+00 1.665516076989999872e-01 1.307656726520000090e+00 -1.384814459071000092e+00 -7.986658221329999696e-01 1.929019258615999988e+00 -1.412648747463999932e+00 8.476093411000000521e-02 9.277658051800000139e-02 6.788751253810000330e-01 -1.098536093369000044e+00 1.304547977126000013e+00 1.142005345140999939e+00 -4.628180215959999955e-01 1.153685541124999991e+00 -7.587739936859999590e-01 1.291604478430000036e+00 8.108689867299999354e-02 7.473984471800000640e-02 -1.077484346729999931e+00 8.236111154349999852e-01 -5.827785821040000203e-01 -2.767384387899999854e-01 -2.435424733819999965e-01 -7.196855767109999746e-01 1.468946685239999883e-01 -7.923333338760000233e-01 3.705103050499999884e-02 2.915585823840000090e-01 -2.210433131139999952e-01 1.032058441080000027e-01 1.630368565020000049e-01 -1.945603650530000062e-01 9.730580176990000218e-01 6.954693900349999680e-01 -2.706221667390000252e-01 2.467644219929999994e-01 4.339784353319999788e-01 -6.366700569300000057e-01 5.337820515700000129e-02 1.923559984019999891e-01 -3.063047516999999834e-03 7.797972845880000170e-01 4.985900356700000147e-02 1.131448873499999938e-02 -2.668081369720000096e-01 -1.159097490340000036e-01 -1.005806376730000035e-01 -4.514914854820000212e-01 2.693607995300000002e-02 -3.355773642159999848e-01 -4.645941485080000155e-01 1.645796363900000059e-01 -3.683349007889999971e-01 4.163597496899999750e-02 3.931017095339999767e-01 7.472893810289999994e-01 1.447330004690000060e-01 -2.315895705350000111e-01 -7.374491010110000300e-01 5.632614924290000324e-01 2.183779152049999950e-01 -1.729014142220000050e-01 -1.052017642029999950e-01 1.142001866503000063e+00 -9.409878503299999863e-01 2.345209342169999878e-01 1.885599672500000087e-02 -5.760434418750000063e-01 5.180903717860000368e-01 -5.090169416790000234e-01 -1.175265467580000056e-01 -3.476437936480000213e-01 -5.443753987239999814e-01 -4.170929033069999958e-01 1.925146266470000034e-01 2.588958177400000130e-02 -3.319167810790000228e-01 1.286319006989999902e-01 -8.907840462100000134e-02 -3.776673741589999800e-01 7.003904023479999852e-01 -8.001995050139999455e-01 2.965450364009999951e-01 -5.535897271000000258e-02 -1.506425409949999905e-01 -2.516683485230000183e-01 -4.252032589709999755e-01 -4.942791515899999655e-02
-5.868990053429999909e-01 -1.335789840890000135e-01 -4.404129247920000045e-01 -2.235822602399999831e-02 3.640921160999999739e-01 -7.234054476440000547e-01 3.309205198030000239e-01 1.233197882740000029e-01 2.331284723000000003e-01 -1.518553648590000027e-01 5.575036974910000387e-01 -1.712276545599999977e-01 -5.447628814299999567e-01 -7.804660585460000410e-01 2.865248283049999789e-01 8.263571115399999389e-02 1.980312132419999871e-01 -7.694058120900000575e-02 -2.004590704999999889e-02 7.378537186999999803e-03 1.429537710949999874e-01 6.535712163899999594e-02 -1.056872310190000025e-01 4.004514532830000251e-01 -1.083805316841000010e+00 -1.526424218517999920e+00 6.853316686020000104e-01 4.849422811540000100e-01 5.632189447240000257e-01 8.064998230680000546e-01 4.555679462769999799e-01 9.923175555280000504e-01 -1.288860008369999977e-01 5.637296221630000437e-01 -8.252523916970000428e-01 -9.764294526419999842e-01 2.897702367697999826e+00 -1.964126367983000110e+00 1.758815469999999992e-01 1.020745251813000021e+00 1.013581934839000054e+00 -1.092150715295999941e+00 8.160859628329999449e-01 1.013717182444000109e+00 5.845352312000000328e-03 1.052379657816000069e+00 -3.471466459879999911e-01 5.665130439429999498e-01 4.574807449280000049e-01 9.073310217340000428e-01 -4.768356892510000056e-01 1.308289563310000014e+00 -4.236174626190000181e-01 -1.609380639980000083e-01 -1.231764572229999966e-01 -3.545018208019999895e-01 2.374460030300000121e-02 -8.327177572749999701e-01 5.915980033950000161e-01 4.115200019600000203e-02 -2.913919170599999983e-02 2.151101167729999875e-01 3.634092158080000079e-01 6.496140365899999436e-02 -7.817990332159999722e-01 6.368257458439999796e-01 -2.860259889660000110e-01 3.083149622370000009e-01 -2.380131418839999957e-01 1.715981453300000070e-02 8.122694548200000420e-02 4.641418638900000199e-02 3.115978293300000063e-02 -2.892876016570000153e-01 3.833842997399999897e-02 1.498196338280000095e-01 -1.604828500159999893e-01 3.046632503999999794e-03 -8.964035175029999580e-01 -6.244982880870000308e-01 5.109477645300000009e-02 -9.804379618280000264e-01 3.070490754899999897e-01 7.065503102799999824e-02 -2.297616567340000082e-01 1.794201056810000028e-01 -1.505423429399999902e-01 9.226610113430000482e-01 4.395442831299999770e-02 -4.297165653980000166e-01 -6.589196224550000203e-01 -9.725807003099999626e-02 2.343698607770000053e-01 -6.996114696990000104e-01 5.972544600989999619e-01 4.046732685630000104e-01 -1.510635413743999900e+00 -1.631926155799999847e-02 1.550763414800000045e-02 8.297860953100000270e-02 -2.543745512339999904e-01 -3.006282239449999949e-01 1.279947650009999882e-01 -6.914960037299999751e-01 -7.961344344199999812e-01 -6.746188354950000132e-01 -3.530363431999999912e-02 1.033071730509999980e-01 -3.180663477049999743e-01 2.517277636379999795e-01 -1.222619119680000005e-01 -2.430245469869999897e-01 8.446469090929999979e-01 1.005569731223999952e+00 -8.990289200080000542e-01 5.264198100410000247e-01 -1.469493885669999889e-01 -1.412773825420000073e-01 -2.755940966970000239e-01 9.023429318200000548e-02
-3.783742656269999949e-01 -3.371265205689999989e-01 -1.193444639080000064e-01 2.472834312000000197e-03 4.883324840539999823e-01 -8.385757311710000383e-01 6.116823246510000311e-01 1.661622827800000035e-01 2.595148541050000257e-01 -2.021700760299999927e-02 4.807284360190000050e-01 -1.146845760959999960e-01 -2.701232050779999727e-01 -4.877486400009999890e-01 2.344127167929999922e-01 1.391422198479999872e-01 2.419550474150000130e-01 3.579650045499999794e-02 1.057042987830000003e-01 -4.346102855200000004e-02 5.260168503800000117e-02 8.889233320000000660e-02 -9.212279144299999334e-02 3.113653318910000189e-01 -5.566663064719999943e-01 -1.437038319465000047e+00 3.955694576450000111e-01 3.636013179300000286e-02 9.337083907969999652e-01 4.154056079849999805e-01 9.548588422689999744e-01 2.188359518770000012e-01 -2.862673648180000252e-01 -7.484487956430000422e-01 -3.749603614500000154e-02 -7.947175661859999796e-01 1.288450572025999996e+00 -1.091748858809000078e+00 6.160145963199999825e-02 6.112824041969999733e-01 4.374631264300000155e-01 -3.700526934000000212e-01 2.151778933759999901e-01 6.679369955599999686e-01 7.600085812819999953e-01 -1.352175279820000131e-01 -9.311970502699999652e-02 -4.812149634139999965e-01 4.181681044700000238e-01 1.049722061853999966e+00 9.493240459509999507e-01 -2.565262701800000156e-02 -6.049951306399999756e-02 -2.446138968790000090e-01 -5.980233953700000299e-02 2.191349762669999868e-01 -1.179356206879999952e-01 -5.526926717939999456e-01 7.345270127580000308e-01 -4.885875857129999833e-01 4.023091812710000159e-01 1.174385607100000006e-01 4.164530575379999933e-01 3.160906960989999792e-01 -1.772435239962999898e+00 4.020591188699999818e-02 -2.353896726939999906e-01 2.818557253039999932e-01 -3.792371927270000165e-01 7.454848531129999456e-01 1.221005337050000000e-01 -1.642200405389999951e-01 7.442364415699999347e-02 -1.258397028607000090e+00 7.797475201799999867e-02 1.633302458839999971e-01 7.925885875600000019e-02 -1.819885536360000000e-01 -7.312519774100000036e-02 -2.963350281400000119e-01 7.208846839499999382e-02 -1.135279169356000040e+00 5.056914038890000240e-01 -1.319443619419999880e-01 -1.002517067400000017e-01 2.615453415999999809e-01 -5.500976753899999849e-02 -5.362802520949999652e-01 -2.662265293439999847e-01 -2.836324571070000244e-01 -2.311683129190000019e-01 -4.859734819370000181e-01 1.235562356959999941e-01 -9.435192627780000230e-01 1.109635036587999890e+00 -1.275924416143999984e+00 -6.692311143300000431e-02 -1.562188174849999944e-01 1.042755326300000007e-01 6.444334444899999514e-01 -3.968738664720000142e-01 2.128370021369999920e-01 1.154887897950000047e-01 -7.555015649840000069e-01 4.719958382200000191e-01 7.069081624600000169e-02 -2.884493222549999736e-01 1.828406010949999994e-01 -6.535878929999999927e-03 2.588896048139999739e-01 3.507402700999999977e-03 -2.148540691389999868e-01 4.648090121410000108e-01 1.169791407503000036e+00 -6.137664859020000030e-01 7.657949539549999685e-01 -1.243168737880000069e-01 -1.001557634970000055e-01 -2.487535050119999980e-01 1.011416750949999943e-01
1.317859594399999924e-02 -3.890262068059999745e-01 1.519322559509999893e-01 -3.634421590800000074e-02 4.794270881330000011e-01 -8.330500626369999884e-01 9.636601953840000512e-01 1.346208226800000018e-01 2.192063658170000096e-01 7.503603955000000270e-03 4.732400154949999993e-01 -2.610848226410000250e-01 1.422126403869999889e-01 -1.564415932659999897e-01 1.562363838580000108e-01 1.999363560430000020e-01 1.617983343820000031e-01 1.540121113129999941e-01 3.201040359269999858e-01 -2.311484944100000022e-02 -5.121531099800000209e-02 9.455424404100000457e-02 -4.573525351700000185e-02 2.589897328479999761e-01 -2.415478418579999897e-01 -4.887866631989999933e-01 3.358946562199999902e-02 -8.910456282449999987e-01 1.122631781920000044e-01 -2.844168866960000153e-01 6.203594615220000552e-01 -4.956970804320000035e-01 -3.071905420259999908e-01 -6.859162673930000453e-01 4.700920266990000207e-01 -5.378571410400000141e-02 -2.318084083695000075e+00 -1.741787544270000099e-01 -3.100953244099999978e-02 -1.040393307782000010e+00 -3.254261340399999813e-01 4.875056073749999830e-01 -4.585390863789999827e-01 5.212192892579999848e-01 3.812376889440000083e-01 -1.152524240870000050e+00 -2.664235393930000084e-01 -1.577096814888000020e+00 2.216210627519999976e-01 6.187820489559999748e-01 7.349342997600000205e-01 -1.052309130795999970e+00 2.887611142870000203e-01 -2.671775922049999807e-01 -5.534483723699999691e-02 2.018318919880000006e-01 -8.515709732699999757e-02 -1.316712338440000074e-01 2.938150142609999849e-01 4.262563205120000198e-01 3.101544740750000195e-01 -5.099043738899999845e-02 4.016509381119999778e-01 6.009123749439999607e-01 -2.234124694300000102e-01 -4.781800526269999740e-01 -6.947908467100000207e-02 1.364559148289999913e-01 3.400716538210000195e-01 1.027829133609999973e-01 9.261061500299999638e-02 -3.260857607250000068e-01 2.134552668820000054e-01 -6.205337890930000544e-01 1.753220303130000046e-01 1.080051971649999970e-01 2.367947807939999871e-01 -8.066972236330000046e-01 9.818289584249999535e-01 1.594935356859999986e-01 7.916252319600000642e-02 -6.559082700770000329e-01 -7.459983776080000295e-01 -3.786152360860000066e-01 1.070282210399999961e-01 2.195548447529999947e-01 -2.040068863550000000e-01 -1.177291908286999922e+00 -5.870320267249999890e-01 -2.151094890000000009e-04 3.528292750620000140e-01 -3.955031042050000112e-01 -6.925805320399999743e-02 -5.289698336889999686e-01 1.024908784329999989e+00 -1.138609580638999974e+00 2.176368775359999841e+00 -1.340481719889999868e-01 1.882821777800000040e-01 9.636793421589999742e-01 3.191824190629999891e-01 6.460693058619999540e-01 -1.503765978030000006e-01 -5.746085587239999626e-01 1.786597779480000092e+00 7.883339676739999913e-01 -3.308360379820000086e-01 1.587132474150000083e-01 3.754753171970000025e-01 2.279953715009999937e-01 1.610650401200000026e-01 -6.931993813100000013e-02 -8.258349521900000545e-02 1.685161768550000050e-01 1.129984519711999980e+00 4.677522787269999816e-01 -9.307275333200000500e-02 -7.890329234600000630e-02 -5.302228261300000467e-01 1.365739271030000090e-01