7.868659847085392123e+00 0.000000000000000000e+00 -0.000000000000000000e+00 5.068970821477507965e-02 7.942109285592306556e+00 0.000000000000000000e+00 -3.604979248653859825e-02 5.210970004087451396e-02 7.849569993020341307e+00
7.868394968814111934e+00 0.000000000000000000e+00 -0.000000000000000000e+00 5.068970821477507965e-02 7.941841934834257266e+00 0.000000000000000000e+00 -3.604979248653859825e-02 5.210970004087451396e-02 7.849305757360361291e+00
7.869460834087670165e+00 0.000000000000000000e+00 -0.000000000000000000e+00 5.068970821477507965e-02 7.942917749350545620e+00 0.000000000000000000e+00 -3.604979248653859825e-02 5.210970004087451396e-02 7.850369036778805487e+00
7.873784065107850338e+00 0.000000000000000000e+00 -0.000000000000000000e+00 5.068970821477507965e-02 7.947281335259430257e+00 0.000000000000000000e+00 -3.604979248653859825e-02 5.210970004087451396e-02 7.854681779374359074e+00
7.881213109510033732e+00 0.000000000000000000e+00 -0.000000000000000000e+00 5.068970821477507965e-02 7.954779725541438751e+00 0.000000000000000000e+00 -3.604979248653859825e-02 5.210970004087451396e-02 7.862092800456290220e+00
7.889615007972175853e+00 0.000000000000000000e+00 -0.000000000000000000e+00 5.068970821477507965e-02 7.963260050919132027e+00 0.000000000000000000e+00 -3.604979248653859825e-02 5.210970004087451396e-02 7.870474315394766940e+00
7.896577894195706548e+00 0.000000000000000000e+00 -0.000000000000000000e+00 5.068970821477507965e-02 7.970287931701533601e+00 0.000000000000000000e+00 -3.604979248653859825e-02 5.210970004087451396e-02 7.877420309225533934e+00
7.900299035632695421e+00 0.000000000000000000e+00 -0.000000000000000000e+00 5.068970821477507965e-02 7.974043807865578870e+00 0.000000000000000000e+00 -3.604979248653859825e-02 5.210970004087451396e-02 7.881132422944490123e+00
7.900510357885260682e+00 0.000000000000000000e+00 -0.000000000000000000e+00 5.068970821477507965e-02 7.974257102690789800e+00 0.000000000000000000e+00 -3.604979248653859825e-02 5.210970004087451396e-02 7.881343232517006747e+00
7.898775678323598726e+00 0.000000000000000000e+00 -0.000000000000000000e+00 5.068970821477507965e-02 7.972506230887336010e+00 0.000000000000000000e+00 -3.604979248653859825e-02 5.210970004087451396e-02 7.879612761394119147e+00
7.897053998701104582e+00 0.000000000000000000e+00 -0.000000000000000000e+00 5.068970821477507965e-02 7.970768480370351128e+00 0.000000000000000000e+00 -3.604979248653859825e-02 5.210970004087451396e-02 7.877895258672582557e+00
7.896178106549004205e+00 0.000000000000000000e+00 -0.000000000000000000e+00 5.068970821477507965e-02 7.969884412266313056e+00 0.000000000000000000e+00 -3.604979248653859825e-02 5.210970004087451396e-02 7.877021491489249350e+00
7.895998615913206287e+00 0.000000000000000000e+00 -0.000000000000000000e+00 5.068970821477507965e-02 7.969703246188159618e+00 0.000000000000000000e+00 -3.604979248653859825e-02 5.210970004087451396e-02 7.876842436307945228e+00
7.896626591229391146e+00 0.000000000000000000e+00 -0.000000000000000000e+00 5.068970821477507965e-02 7.970337083294602110e+00 0.000000000000000000e+00 -3.604979248653859825e-02 5.210970004087451396e-02 7.877468888117899581e+00
7.898189674510813774e+00 0.000000000000000000e+00 -0.000000000000000000e+00 5.068970821477507965e-02 7.971914757064037182e+00 0.000000000000000000e+00 -3.604979248653859825e-02 5.210970004087451396e-02 7.879028179262149933e+00
7.899824958565625721e+00 0.000000000000000000e+00 -0.000000000000000000e+00 5.068970821477507965e-02 7.973565305560983418e+00 0.000000000000000000e+00 -3.604979248653859825e-02 5.210970004087451396e-02 7.880659496017799803e+00
7.899992781601586245e+00 0.000000000000000000e+00 -0.000000000000000000e+00 5.068970821477507965e-02 7.973734695127925320e+00 0.000000000000000000e+00 -3.604979248653859825e-02 5.210970004087451396e-02 7.880826911904103227e+00
7.898215461670374360e+00 0.000000000000000000e+00 -0.000000000000000000e+00 5.068970821477507965e-02 7.971940784932213475e+00 0.000000000000000000e+00 -3.604979248653859825e-02 5.210970004087451396e-02 7.879053903861071184e+00
7.896138495439017468e+00 0.000000000000000000e+00 -0.000000000000000000e+00 5.068970821477507965e-02 7.969844431409454089e+00 0.000000000000000000e+00 -3.604979248653859825e-02 5.210970004087451396e-02 7.876981976478709235e+00
7.896616091219832434e+00 0.000000000000000000e+00 -0.000000000000000000e+00 5.068970821477507965e-02 7.970326485273607098e+00 0.000000000000000000e+00 -3.604979248653859825e-02 5.210970004087451396e-02 7.877458413582194119e+00
7.902423655897742094e+00 0.000000000000000000e+00 -0.000000000000000000e+00 5.068970821477507965e-02 7.976188260246465767e+00 0.000000000000000000e+00 -3.604979248653859825e-02 5.210970004087451396e-02 7.883251888750206327e+00
7.915943874316292650e+00 0.000000000000000000e+00 -0.000000000000000000e+00 5.068970821477507965e-02 7.989834682169551172e+00 0.000000000000000000e+00 -3.604979248653859825e-02 5.210970004087451396e-02 7.896739306284569437e+00
7.936983396618466635e+00 0.000000000000000000e+00 -0.000000000000000000e+00 5.068970821477507965e-02 8.011070596376235642e+00 0.000000000000000000e+00 -3.604979248653859825e-02 5.210970004087451396e-02 7.917727785407564056e+00
7.958444087784266152e+00 0.000000000000000000e+00 -0.000000000000000000e+00 5.068970821477507965e-02 8.032731610817913648e+00 0.000000000000000000e+00 -3.604979248653859825e-02 5.210970004087451396e-02 7.939136411614063249e+00
7.970448677638231061e+00 0.000000000000000000e+00 -0.000000000000000000e+00 5.068970821477507965e-02 8.044848256650849905e+00 0.000000000000000000e+00 -3.604979248653859825e-02 5.210970004087451396e-02 7.951111877592675903e+00
7.967537006297688684e+00 0.000000000000000000e+00 -0.000000000000000000e+00 5.068970821477507965e-02 8.041909406524757387e+00 0.000000000000000000e+00 -3.604979248653859825e-02 5.210970004087451396e-02 7.948207270146471437e+00
7.950619849065939881e+00 0.000000000000000000e+00 -0.000000000000000000e+00 5.068970821477507965e-02 8.024834337306996801e+00 0.000000000000000000e+00 -3.604979248653859825e-02 5.210970004087451396e-02 7.931331154981471343e+00
7.926625012723443220e+00 0.000000000000000000e+00 -0.000000000000000000e+00 5.068970821477507965e-02 8.000615522893784970e+00 0.000000000000000000e+00 -3.604979248653859825e-02 5.210970004087451396e-02 7.907394531591884324e+00
7.904685288960100920e+00 0.000000000000000000e+00 -0.000000000000000000e+00 5.068970821477507965e-02 7.978471004359303009e+00 0.000000000000000000e+00 -3.604979248653859825e-02 5.210970004087451396e-02 7.885508034951149270e+00
7.889057815029546283e+00 0.000000000000000000e+00 -0.000000000000000000e+00 5.068970821477507965e-02 7.962697656898440890e+00 0.000000000000000000e+00 -3.604979248653859825e-02 5.210970004087451396e-02 7.869918474236356154e+00
7.878812121099845633e+00 0.000000000000000000e+00 -0.000000000000000000e+00 5.068970821477507965e-02 7.952356325277260218e+00 0.000000000000000000e+00 -3.604979248653859825e-02 5.210970004087451396e-02 7.859697636991572089e+00
7.873335216886555799e+00 0.000000000000000000e+00 -0.000000000000000000e+00 5.068970821477507965e-02 7.946828297296254284e+00 0.000000000000000000e+00 -3.604979248653859825e-02 5.210970004087451396e-02 7.854234020085796963e+00
7.874306112176790329e+00 0.000000000000000000e+00 -0.000000000000000000e+00 5.068970821477507965e-02 7.947808255338319583e+00 0.000000000000000000e+00 -3.604979248653859825e-02 5.210970004087451396e-02 7.855202559924590489e+00
7.883314335478744717e+00 0.000000000000000000e+00 -0.000000000000000000e+00 5.068970821477507965e-02 7.956900565252246871e+00 0.000000000000000000e+00 -3.604979248653859825e-02 5.210970004087451396e-02 7.864188928721344674e+00
7.898654273883439991e+00 0.000000000000000000e+00 -0.000000000000000000e+00 5.068970821477507965e-02 7.972383693206699817e+00 0.000000000000000000e+00 -3.604979248653859825e-02 5.210970004087451396e-02 7.879491651488264914e+00
7.915661875011565485e+00 0.000000000000000000e+00 -0.000000000000000000e+00 5.068970821477507965e-02 7.989550050562977290e+00 0.000000000000000000e+00 -3.604979248653859825e-02 5.210970004087451396e-02 7.896457991127904918e+00
7.929651243042550313e+00 0.000000000000000000e+00 -0.000000000000000000e+00 5.068970821477507965e-02 8.003670001342287676e+00 0.000000000000000000e+00 -3.604979248653859825e-02 5.210970004087451396e-02 7.910413420089253300e+00
7.938915938533173566e+00 0.000000000000000000e+00 -0.000000000000000000e+00 5.068970821477507965e-02 8.013021177465102340e+00 0.000000000000000000e+00 -3.604979248653859825e-02 5.210970004087451396e-02 7.919655638857258317e+00
7.943819153074794137e+00 0.000000000000000000e+00 -0.000000000000000000e+00 5.068970821477507965e-02 8.017970160709264604e+00 0.000000000000000000e+00 -3.604979248653859825e-02 5.210970004087451396e-02 7.924546957898352950e+00
7.942699123113023951e+00 0.000000000000000000e+00 -0.000000000000000000e+00 5.068970821477507965e-02 8.016839675908675744e+00 0.000000000000000000e+00 -3.604979248653859825e-02 5.210970004087451396e-02 7.923429645197941795e+00
7.933121574256278841e+00 0.000000000000000000e+00 -0.000000000000000000e+00 5.068970821477507965e-02 8.007172726111548400e+00 0.000000000000000000e+00 -3.604979248653859825e-02 5.210970004087451396e-02 7.913875332065445356e+00
7.915054244186271681e+00 0.000000000000000000e+00 -0.000000000000000000e+00 5.068970821477507965e-02 7.988936747851332676e+00 0.000000000000000000e+00 -3.604979248653859825e-02 5.210970004087451396e-02 7.895851834453124773e+00
7.891340063975233576e+00 0.000000000000000000e+00 -0.000000000000000000e+00 5.068970821477507965e-02 7.965001209333498977e+00 0.000000000000000000e+00 -3.604979248653859825e-02 5.210970004087451396e-02 7.872195186305915193e+00
7.867075180488210862e+00 0.000000000000000000e+00 -0.000000000000000000e+00 5.068970821477507965e-02 7.940509827039271329e+00 0.000000000000000000e+00 -3.604979248653859825e-02 5.210970004087451396e-02 7.847989170922028634e+00
7.848614403665001404e+00 0.000000000000000000e+00 -0.000000000000000000e+00 5.068970821477507965e-02 7.921876729423992458e+00 0.000000000000000000e+00 -3.604979248653859825e-02 5.210970004087451396e-02 7.829573181081013189e+00
7.840705753318573556e+00 0.000000000000000000e+00 -0.000000000000000000e+00 5.068970821477507965e-02 7.913894256351510670e+00 0.000000000000000000e+00 -3.604979248653859825e-02 5.210970004087451396e-02 7.821683717609140274e+00
7.844428571331912181e+00 0.000000000000000000e+00 -0.000000000000000000e+00 5.068970821477507965e-02 7.917651824740815414e+00 0.000000000000000000e+00 -3.604979248653859825e-02 5.210970004087451396e-02 7.825397503836468260e+00
7.857650761464004319e+00 0.000000000000000000e+00 -0.000000000000000000e+00 5.068970821477507965e-02 7.930997436453456118e+00 0.000000000000000000e+00 -3.604979248653859825e-02 5.210970004087451396e-02 7.838587616119210288e+00
7.876248226692394105e+00 0.000000000000000000e+00 -0.000000000000000000e+00 5.068970821477507965e-02 7.949768498382570492e+00 0.000000000000000000e+00 -3.604979248653859825e-02 5.210970004087451396e-02 7.857139962750315121e+00
7.895145344274895116e+00 0.000000000000000000e+00 -0.000000000000000000e+00 5.068970821477507965e-02 7.968842009747695521e+00 0.000000000000000000e+00 -3.604979248653859825e-02 5.210970004087451396e-02 7.875991234760717496e+00
7.910010573906156139e+00 0.000000000000000000e+00 -0.000000000000000000e+00 5.068970821477507965e-02 7.983845997793222793e+00 0.000000000000000000e+00 -3.604979248653859825e-02 5.210970004087451396e-02 7.890820400426574288e+00
7.918318752151781048e+00 0.000000000000000000e+00 -0.000000000000000000e+00 5.068970821477507965e-02 7.992231728130433588e+00 0.000000000000000000e+00 -3.604979248653859825e-02 5.210970004087451396e-02 7.899108422520223272e+00
7.919227186029561771e+00 0.000000000000000000e+00 -0.000000000000000000e+00 5.068970821477507965e-02 7.993148641719402647e+00 0.000000000000000000e+00 -3.604979248653859825e-02 5.210970004087451396e-02 7.900014652481690547e+00
7.912858169222539928e+00 0.000000000000000000e+00 -0.000000000000000000e+00 5.068970821477507965e-02 7.986720173782599907e+00 0.000000000000000000e+00 -3.604979248653859825e-02 5.210970004087451396e-02 7.893661087301724777e+00
7.900609628445829813e+00 0.000000000000000000e+00 -0.000000000000000000e+00 5.068970821477507965e-02 7.974357299885025618e+00 0.000000000000000000e+00 -3.604979248653859825e-02 5.210970004087451396e-02 7.881442262239962027e+00
7.885323644122558484e+00 0.000000000000000000e+00 -0.000000000000000000e+00 5.068970821477507965e-02 7.958928629643096997e+00 0.000000000000000000e+00 -3.604979248653859825e-02 5.210970004087451396e-02 7.866193362658219002e+00
7.870780765037750371e+00 0.000000000000000000e+00 -0.000000000000000000e+00 5.068970821477507965e-02 7.944250001100702896e+00 0.000000000000000000e+00 -3.604979248653859825e-02 5.210970004087451396e-02 7.851685765494317515e+00
7.861367761865830417e+00 0.000000000000000000e+00 -0.000000000000000000e+00 5.068970821477507965e-02 7.934749132928561544e+00 0.000000000000000000e+00 -3.604979248653859825e-02 5.210970004087451396e-02 7.842295598848943783e+00
7.859890653133513538e+00 0.000000000000000000e+00 -0.000000000000000000e+00 5.068970821477507965e-02 7.933258236230611438e+00 0.000000000000000000e+00 -3.604979248653859825e-02 5.210970004087451396e-02 7.840822073672999437e+00
7.865482591341633523e+00 0.000000000000000000e+00 -0.000000000000000000e+00 5.068970821477507965e-02 7.938902371984267070e+00 0.000000000000000000e+00 -3.604979248653859825e-02 5.210970004087451396e-02 7.846400445495211429e+00
7.874817652460210482e+00 0.000000000000000000e+00 -0.000000000000000000e+00 5.068970821477507965e-02 7.948324570557254276e+00 0.000000000000000000e+00 -3.604979248653859825e-02 5.210970004087451396e-02 7.855712859179153185e+00
7.885379855085991707e+00 0.000000000000000000e+00 -0.000000000000000000e+00 5.068970821477507965e-02 7.958985365303509418e+00 0.000000000000000000e+00 -3.604979248653859825e-02 5.210970004087451396e-02 7.866249437250437460e+00
7.896027268955270628e+00 0.000000000000000000e+00 -0.000000000000000000e+00 5.068970821477507965e-02 7.969732166689683872e+00 0.000000000000000000e+00 -3.604979248653859825e-02 5.210970004087451396e-02 7.876871019836409360e+00
7.905918381009051643e+00 0.000000000000000000e+00 -0.000000000000000000e+00 5.068970821477507965e-02 7.979715606616998080e+00 0.000000000000000000e+00 -3.604979248653859825e-02 5.210970004087451396e-02 7.886738135442320718e+00
7.913878920965785824e+00 0.000000000000000000e+00 -0.000000000000000000e+00 5.068970821477507965e-02 7.987750453660998673e+00 0.000000000000000000e+00 -3.604979248653859825e-02 5.210970004087451396e-02 7.894679362639226206e+00
7.918516966505799282e+00 0.000000000000000000e+00 -0.000000000000000000e+00 5.068970821477507965e-02 7.992431792702801907e+00 0.000000000000000000e+00 -3.604979248653859825e-02 5.210970004087451396e-02 7.899306155994008982e+00
7.919315998867328510e+00 0.000000000000000000e+00 -0.000000000000000000e+00 5.068970821477507965e-02 7.993238283574396696e+00 0.000000000000000000e+00 -3.604979248653859825e-02 5.210970004087451396e-02 7.900103249853697385e+00
7.917324377460700724e+00 0.000000000000000000e+00 -0.000000000000000000e+00 5.068970821477507965e-02 7.991228071520783516e+00 0.000000000000000000e+00 -3.604979248653859825e-02 5.210970004087451396e-02 7.898116460243256753e+00
7.915193168466581497e+00 0.000000000000000000e+00 -0.000000000000000000e+00 5.068970821477507965e-02 7.989076968909177623e+00 0.000000000000000000e+00 -3.604979248653859825e-02 5.210970004087451396e-02 7.895990421693374728e+00
7.914927927635387661e+00 0.000000000000000000e+00 -0.000000000000000000e+00 5.068970821477507965e-02 7.988809252207235367e+00 0.000000000000000000e+00 -3.604979248653859825e-02 5.210970004087451396e-02 7.895725824352476607e+00
7.915439750397181840e+00 0.000000000000000000e+00 -0.000000000000000000e+00 5.068970821477507965e-02 7.989325852541528938e+00 0.000000000000000000e+00 -3.604979248653859825e-02 5.210970004087451396e-02 7.896236405401418246e+00
7.913238098282554311e+00 0.000000000000000000e+00 -0.000000000000000000e+00 5.068970821477507965e-02 7.987103649263199046e+00 0.000000000000000000e+00 -3.604979248653859825e-02 5.210970004087451396e-02 7.894040094630044635e+00
7.907154545663315659e+00 0.000000000000000000e+00 -0.000000000000000000e+00 5.068970821477507965e-02 7.980963310160840152e+00 0.000000000000000000e+00 -3.604979248653859825e-02 5.210970004087451396e-02 7.887971301084847120e+00
7.900741355097571805e+00 0.000000000000000000e+00 -0.000000000000000000e+00 5.068970821477507965e-02 7.974490256130689403e+00 0.000000000000000000e+00 -3.604979248653859825e-02 5.210970004087451396e-02 7.881573669315542929e+00
7.899243940896139016e+00 0.000000000000000000e+00 -0.000000000000000000e+00 5.068970821477507965e-02 7.972978864423715173e+00 0.000000000000000000e+00 -3.604979248653859825e-02 5.210970004087451396e-02 7.880079887933198357e+00
7.905310004672049473e+00 0.000000000000000000e+00 -0.000000000000000000e+00 5.068970821477507965e-02 7.979101551434684580e+00 0.000000000000000000e+00 -3.604979248653859825e-02 5.210970004087451396e-02 7.886131235064821610e+00
7.916315323650118252e+00 0.000000000000000000e+00 -0.000000000000000000e+00 5.068970821477507965e-02 7.990209598770419142e+00 0.000000000000000000e+00 -3.604979248653859825e-02 5.210970004087451396e-02 7.897109854459582579e+00
7.926605098373077141e+00 0.000000000000000000e+00 -0.000000000000000000e+00 5.068970821477507965e-02 8.000595422654487976e+00 0.000000000000000000e+00 -3.604979248653859825e-02 5.210970004087451396e-02 7.907374665554238291e+00
7.933340348199950043e+00 0.000000000000000000e+00 -0.000000000000000000e+00 5.068970821477507965e-02 8.007393542184466639e+00 0.000000000000000000e+00 -3.604979248653859825e-02 5.210970004087451396e-02 7.914093575249172119e+00
7.937452016649948483e+00 0.000000000000000000e+00 -0.000000000000000000e+00 5.068970821477507965e-02 8.011543590708535945e+00 0.000000000000000000e+00 -3.604979248653859825e-02 5.210970004087451396e-02 7.918195268538590348e+00
7.940328091607395500e+00 0.000000000000000000e+00 -0.000000000000000000e+00 5.068970821477507965e-02 8.014446512179446813e+00 0.000000000000000000e+00 -3.604979248653859825e-02 5.210970004087451396e-02 7.921064365961201226e+00
7.942834654131866401e+00 0.000000000000000000e+00 -0.000000000000000000e+00 5.068970821477507965e-02 8.016976472032236956e+00 0.000000000000000000e+00 -3.604979248653859825e-02 5.210970004087451396e-02 7.923564847410677459e+00
7.945686048655381306e+00 0.000000000000000000e+00 -0.000000000000000000e+00 5.068970821477507965e-02 8.019854482692538866e+00 0.000000000000000000e+00 -3.604979248653859825e-02 5.210970004087451396e-02 7.926409324275010881e+00
7.948031589008745179e+00 0.000000000000000000e+00 -0.000000000000000000e+00 5.068970821477507965e-02 8.022221917322873708e+00 0.000000000000000000e+00 -3.604979248653859825e-02 5.210970004087451396e-02 7.928749174202130767e+00
7.947479261132110118e+00 0.000000000000000000e+00 -0.000000000000000000e+00 5.068970821477507965e-02 8.021664433780916426e+00 0.000000000000000000e+00 -3.604979248653859825e-02 5.210970004087451396e-02 7.928198186306783413e+00
7.942021115919836838e+00 0.000000000000000000e+00 -0.000000000000000000e+00 5.068970821477507965e-02 8.016155339905919774e+00 0.000000000000000000e+00 -3.604979248653859825e-02 5.210970004087451396e-02 7.922753282891286553e+00
7.931510119283299076e+00 0.000000000000000000e+00 -0.000000000000000000e+00 5.068970821477507965e-02 8.005546229128155389e+00 0.000000000000000000e+00 -3.604979248653859825e-02 5.210970004087451396e-02 7.912267786580960305e+00
7.917272065045827034e+00 0.000000000000000000e+00 -0.000000000000000000e+00 5.068970821477507965e-02 7.991175270799719677e+00 0.000000000000000000e+00 -3.604979248653859825e-02 5.210970004087451396e-02 7.898064274741652291e+00
7.901649062170536197e+00 0.000000000000000000e+00 -0.000000000000000000e+00 5.068970821477507965e-02 7.975406436128881005e+00 0.000000000000000000e+00 -3.604979248653859825e-02 5.210970004087451396e-02 7.882479174235183628e+00
7.886816715522989796e+00 0.000000000000000000e+00 -0.000000000000000000e+00 5.068970821477507965e-02 7.960435638010302739e+00 0.000000000000000000e+00 -3.604979248653859825e-02 5.210970004087451396e-02 7.867682811774501239e+00
7.874806496523427235e+00 0.000000000000000000e+00 -0.000000000000000000e+00 5.068970821477507965e-02 7.948313310487070460e+00 0.000000000000000000e+00 -3.604979248653859825e-02 5.210970004087451396e-02 7.855701730307214525e+00
7.868422690023539445e+00 0.000000000000000000e+00 -0.000000000000000000e+00 5.068970821477507965e-02 7.941869914805196551e+00 0.000000000000000000e+00 -3.604979248653859825e-02 5.210970004087451396e-02 7.849333411316177234e+00
7.869608361044460487e+00 0.000000000000000000e+00 -0.000000000000000000e+00 5.068970821477507965e-02 7.943066653386408937e+00 0.000000000000000000e+00 -3.604979248653859825e-02 5.210970004087451396e-02 7.850516205825655014e+00
7.877967605183133770e+00 0.000000000000000000e+00 -0.000000000000000000e+00 5.068970821477507965e-02 7.951503926287925239e+00 0.000000000000000000e+00 -3.604979248653859825e-02 5.210970004087451396e-02 7.858855169923066875e+00
7.890981496228258507e+00 0.000000000000000000e+00 -0.000000000000000000e+00 5.068970821477507965e-02 7.964639294560790006e+00 0.000000000000000000e+00 -3.604979248653859825e-02 5.210970004087451396e-02 7.871837488465931898e+00
7.904598732529345639e+00 0.000000000000000000e+00 -0.000000000000000000e+00 5.068970821477507965e-02 7.978383639973198882e+00 0.000000000000000000e+00 -3.604979248653859825e-02 5.210970004087451396e-02 7.885421688511185856e+00
7.914496465030016026e+00 0.000000000000000000e+00 -0.000000000000000000e+00 5.068970821477507965e-02 7.988373762146047774e+00 0.000000000000000000e+00 -3.604979248653859825e-02 5.210970004087451396e-02 7.895295408503080203e+00
7.917765527357309985e+00 0.000000000000000000e+00 -0.000000000000000000e+00 5.068970821477507965e-02 7.991673339298688283e+00 0.000000000000000000e+00 -3.604979248653859825e-02 5.210970004087451396e-02 7.898556539883026417e+00
7.914039961246789545e+00 0.000000000000000000e+00 -0.000000000000000000e+00 5.068970821477507965e-02 7.987912997160349526e+00 0.000000000000000000e+00 -3.604979248653859825e-02 5.210970004087451396e-02 7.894840012225478709e+00
7.905682833697932566e+00 0.000000000000000000e+00 -0.000000000000000000e+00 5.068970821477507965e-02 7.979477860606535522e+00 0.000000000000000000e+00 -3.604979248653859825e-02 5.210970004087451396e-02 7.886503159583912570e+00
7.896431901007086473e+00 0.000000000000000000e+00 -0.000000000000000000e+00 5.068970821477507965e-02 7.970140575750758849e+00 0.000000000000000000e+00 -3.604979248653859825e-02 5.210970004087451396e-02 7.877274670225875575e+00
7.888931635723872127e+00 0.000000000000000000e+00 -0.000000000000000000e+00 5.068970821477507965e-02 7.962570299781546623e+00 0.000000000000000000e+00 -3.604979248653859825e-02 5.210970004087451396e-02 7.869792601049919512e+00
7.883773924518211018e+00 0.000000000000000000e+00 -0.000000000000000000e+00 5.068970821477507965e-02 7.957364444292019279e+00 0.000000000000000000e+00 -3.604979248653859825e-02 5.210970004087451396e-02 7.864647402768230933e+00
7.880343180282608273e+00 0.000000000000000000e+00 -0.000000000000000000e+00 5.068970821477507965e-02 7.953901676020755929e+00 0.000000000000000000e+00 -3.604979248653859825e-02 5.210970004087451396e-02 7.861224981729716177e+00
7.878313893984790539e+00 0.000000000000000000e+00 -0.000000000000000000e+00 5.068970821477507965e-02 7.951853447496975313e+00 0.000000000000000000e+00 -3.604979248653859825e-02 5.210970004087451396e-02 7.859200618605560074e+00
7.877723532310091592e+00 0.000000000000000000e+00 -0.000000000000000000e+00 5.068970821477507965e-02 7.951257575133996447e+00 0.000000000000000000e+00 -3.604979248653859825e-02 5.210970004087451396e-02 7.858611689185615035e+00
7.878563001936850441e+00 0.000000000000000000e+00 -0.000000000000000000e+00 5.068970821477507965e-02 7.952104880728650294e+00 0.000000000000000000e+00 -3.604979248653859825e-02 5.210970004087451396e-02 7.859449122207098348e+00
7.880935101267333209e+00 0.000000000000000000e+00 -0.000000000000000000e+00 5.068970821477507965e-02 7.954499122249675480e+00 0.000000000000000000e+00 -3.604979248653859825e-02 5.210970004087451396e-02 7.861815466678707232e+00
7.885722383923292611e+00 0.000000000000000000e+00 -0.000000000000000000e+00 5.068970821477507965e-02 7.959331091451406159e+00 0.000000000000000000e+00 -3.604979248653859825e-02 5.210970004087451396e-02 7.866591135091521636e+00
7.893082119898435778e+00 0.000000000000000000e+00 -0.000000000000000000e+00 5.068970821477507965e-02 7.966759526351096632e+00 0.000000000000000000e+00 -3.604979248653859825e-02 5.210970004087451396e-02 7.873933015892444764e+00
7.901269809822626833e+00 0.000000000000000000e+00 -0.000000000000000000e+00 5.068970821477507965e-02 7.975023643677349838e+00 0.000000000000000000e+00 -3.604979248653859825e-02 5.210970004087451396e-02 7.882100841975978156e+00
7.908152895224514367e+00 0.000000000000000000e+00 -0.000000000000000000e+00 5.068970821477507965e-02 7.981970978744397094e+00 0.000000000000000000e+00 -3.604979248653859825e-02 5.210970004087451396e-02 7.888967228588988689e+00
7.912199433974419271e+00 0.000000000000000000e+00 -0.000000000000000000e+00 5.068970821477507965e-02 7.986055289617873143e+00 0.000000000000000000e+00 -3.604979248653859825e-02 5.210970004087451396e-02 7.893003950185403461e+00
7.912484459151728267e+00 0.000000000000000000e+00 -0.000000000000000000e+00 5.068970821477507965e-02 7.986342975342867412e+00 0.000000000000000000e+00 -3.604979248653859825e-02 5.210970004087451396e-02 7.893288283874693612e+00
7.909125554673593683e+00 0.000000000000000000e+00 -0.000000000000000000e+00 5.068970821477507965e-02 7.982952717413213328e+00 0.000000000000000000e+00 -3.604979248653859825e-02 5.210970004087451396e-02 7.889937528305652314e+00
7.903387841111601197e+00 0.000000000000000000e+00 -0.000000000000000000e+00 5.068970821477507965e-02 7.977161445576517629e+00 0.000000000000000000e+00 -3.604979248653859825e-02 5.210970004087451396e-02 7.884213734790531447e+00
7.896722351167167808e+00 0.000000000000000000e+00 -0.000000000000000000e+00 5.068970821477507965e-02 7.970433737097233795e+00 0.000000000000000000e+00 -3.604979248653859825e-02 5.210970004087451396e-02 7.877564415736014070e+00
7.890818121504691973e+00 0.000000000000000000e+00 -0.000000000000000000e+00 5.068970821477507965e-02 7.964474394828002346e+00 0.000000000000000000e+00 -3.604979248653859825e-02 5.210970004087451396e-02 7.871674510099084365e+00
7.887446488178829540e+00 0.000000000000000000e+00 -0.000000000000000000e+00 5.068970821477507965e-02 7.961071289233303538e+00 0.000000000000000000e+00 -3.604979248653859825e-02 5.210970004087451396e-02 7.868311056564135875e+00
7.888637760911504593e+00 0.000000000000000000e+00 -0.000000000000000000e+00 5.068970821477507965e-02 7.962273681815969617e+00 0.000000000000000000e+00 -3.604979248653859825e-02 5.210970004087451396e-02 7.869499439195447366e+00
7.895379674413020687e+00 0.000000000000000000e+00 -0.000000000000000000e+00 5.068970821477507965e-02 7.969078527223230068e+00 0.000000000000000000e+00 -3.604979248653859825e-02 5.210970004087451396e-02 7.876224996398114797e+00
7.906459937679688466e+00 0.000000000000000000e+00 -0.000000000000000000e+00 5.068970821477507965e-02 7.980262218408535446e+00 0.000000000000000000e+00 -3.604979248653859825e-02 5.210970004087451396e-02 7.887278378262520206e+00
7.918583779000206491e+00 0.000000000000000000e+00 -0.000000000000000000e+00 5.068970821477507965e-02 7.992499228853619186e+00 0.000000000000000000e+00 -3.604979248653859825e-02 5.210970004087451396e-02 7.899372806397350288e+00
7.927527259774837631e+00 0.000000000000000000e+00 -0.000000000000000000e+00 5.068970821477507965e-02 8.001526191905702134e+00 0.000000000000000000e+00 -3.604979248653859825e-02 5.210970004087451396e-02 7.908294589735878510e+00
7.930919256752482660e+00 0.000000000000000000e+00 -0.000000000000000000e+00 5.068970821477507965e-02 8.004949851234085756e+00 0.000000000000000000e+00 -3.604979248653859825e-02 5.210970004087451396e-02 7.911678357518892035e+00
7.929794101022217490e+00 0.000000000000000000e+00 -0.000000000000000000e+00 5.068970821477507965e-02 8.003814192818278883e+00 0.000000000000000000e+00 -3.604979248653859825e-02 5.210970004087451396e-02 7.910555931486914716e+00
7.927620380304808201e+00 0.000000000000000000e+00 -0.000000000000000000e+00 5.068970821477507965e-02 8.001620181661667885e+00 0.000000000000000000e+00 -3.604979248653859825e-02 5.210970004087451396e-02 7.908387484349149510e+00
7.927400724104215257e+00 0.000000000000000000e+00 -0.000000000000000000e+00 5.068970821477507965e-02 8.001398475095877316e+00 0.000000000000000000e+00 -3.604979248653859825e-02 5.210970004087451396e-02 7.908168361048488748e+00
7.929070329431463726e+00 0.000000000000000000e+00 -0.000000000000000000e+00 5.068970821477507965e-02 8.003083665234415278e+00 0.000000000000000000e+00 -3.604979248653859825e-02 5.210970004087451396e-02 7.909833915810054350e+00
7.930470326632658384e+00 0.000000000000000000e+00 -0.000000000000000000e+00 5.068970821477507965e-02 8.004496730608385846e+00 0.000000000000000000e+00 -3.604979248653859825e-02 5.210970004087451396e-02 7.911230516532799406e+00
7.930943608100307962e+00 0.000000000000000000e+00 -0.000000000000000000e+00 5.068970821477507965e-02 8.004974429887605325e+00 0.000000000000000000e+00 -3.604979248653859825e-02 5.210970004087451396e-02 7.911702649789059016e+00
7.930285567790186896e+00 0.000000000000000000e+00 -0.000000000000000000e+00 5.068970821477507965e-02 8.004310247146840140e+00 0.000000000000000000e+00 -3.604979248653859825e-02 5.210970004087451396e-02 7.911046205925747365e+00