7.828044340229999953e+00 5.308307399400000182e-02 7.843450748756000124e+00 1.021031189499999915e-02 4.005210150726999707e+00 3.928736491322000202e+00 3.938679155831000145e+00 7.989026355957999925e+00 7.842983605711999928e+00 3.967671530631999843e+00 3.969148854368000023e+00 4.916625380000000205e-03 7.849694662440000137e+00 3.869273384599999921e-02 3.910651019070999990e+00 7.892333870632000092e+00 3.968436586269000088e+00 9.363652392000000255e-03 3.964498430686000052e+00 7.967880787479000304e+00 3.926262804793000161e+00 3.948922783153999916e+00 4.002623617581000381e+00 3.920917224630000142e+00 1.977905257326999955e+00 2.009443339004000073e+00 1.980316170812999932e+00 1.950409078912999972e+00 2.014010838702000150e+00 5.877094612691999842e+00 1.999402813050999983e+00 5.983038830502000138e+00 1.977454256466000038e+00 1.990661934492000018e+00 5.997652958137999590e+00 5.887885745835999884e+00 5.897056970887000205e+00 1.998138262759999950e+00 1.967337159721999962e+00 5.891390912970000393e+00 2.034586707354999913e+00 5.870488661181999746e+00 5.921515486817000351e+00 5.960747663170000266e+00 1.974550584601999947e+00 5.908568120387999834e+00 5.988866968166999705e+00 5.882044817880999865e+00 1.963986210440000102e+00 2.018138561264000153e+00 1.955840063000000104e-03 7.871162995587999589e+00 1.999724541975999914e+00 1.995092727739000038e+00 2.013189370231999842e+00 7.955301227872999981e+00 2.000589388595999996e+00 1.976339182627999902e+00 2.011142209662999836e+00 3.911210117237999828e+00 -1.029183439300000030e-02 2.019919217472000206e+00 5.878473630730000288e+00 1.943388312600000001e+00 4.943958822600000302e-02 5.852107555702000141e+00 1.945025618309000004e+00 5.992964965402999944e+00 7.839917812945000009e+00 7.892047050496000082e+00 5.984989981851000174e+00 1.980308514360999972e+00 1.988033025218999938e+00 3.992521369876000037e+00 1.981760640005999941e+00 1.999593059328000022e+00 5.984962203785999968e+00 3.933534707103000017e+00 1.720043241099999953e-02 5.988745090392000314e+00 5.870809117269000232e+00 1.947911505905000062e+00 4.029964898414999830e+00 5.870995998897000412e+00 5.931003817547000345e+00 1.987371450848000043e+00 9.455637774000000620e-03 3.942936229493999800e+00 2.001346852429000123e+00 1.994384496416000019e+00 5.939898559307000170e+00 7.944449635973000134e+00 2.014584554460999932e+00 5.862846394755999668e+00 1.998909370560000065e+00 3.941320300621999895e+00 3.932441783837000049e+00 2.020210095537999795e+00 5.858599898301999787e+00 5.918742773504000354e+00 7.972748719548000018e+00 5.839196938717999608e+00 5.926208158944000104e+00 5.982903585888999842e+00 7.844461866878999601e+00 3.954937554907000052e+00 5.962385456390999927e+00 1.996917027030000069e+00 5.912807750167000442e+00 3.990575684207000151e+00 1.961790988291000071e+00 5.920175510662000207e+00 5.986531846529000056e+00 3.916995187569999981e+00 3.941733419223000023e+00 6.013542125744000266e+00 5.846999325627000310e+00 5.897138560871000301e+00 4.013868107196000068e+00 5.887881643782000296e+00
5.345996813199999781e-02 7.939531754397999741e+00 4.212875902999999901e-03 1.118586016500000037e-02 3.997502599869000139e+00 3.946452340518999957e+00 3.856127682165999992e+00 5.487064877700000010e-02 7.838729732654999616e+00 3.990719878276999921e+00 3.939113599309000069e+00 9.338216111000000735e-03 -1.265061961900000066e-02 6.394776877499999679e-02 3.894529875179999934e+00 7.890196465976000439e+00 3.964660187725999929e+00 1.612963205600000116e-02 3.937576964913000133e+00 7.963595659753000433e+00 3.929143168627000193e+00 3.962045288249000041e+00 4.019811910711999836e+00 3.895623877434000182e+00 2.019646556886999900e+00 2.023481000918000206e+00 1.983106454220999959e+00 1.954772639803999956e+00 2.000054928226000062e+00 5.900560114123999611e+00 1.992273873520999938e+00 6.018460178461999988e+00 1.976890694203000010e+00 1.998333732192000056e+00 5.963556412486999747e+00 5.864507731179999794e+00 5.893767372869000098e+00 1.976894825395000055e+00 1.945922277948999968e+00 5.893817843361000008e+00 2.050439940977000219e+00 5.861654898361999599e+00 5.914066949805000029e+00 5.947852121892999833e+00 1.941688263352000066e+00 5.912052185090000300e+00 5.981030100825000417e+00 5.909558291013000009e+00 1.923697139371000064e+00 2.153608763700999962e+00 7.848043209987999980e+00 7.836235370114000176e+00 1.995618872849999947e+00 2.024478652716999783e+00 1.968850869304000106e+00 2.503922537300000070e-02 1.966893282885000094e+00 2.013024244659999962e+00 2.064072755759000177e+00 3.872328727932000003e+00 3.586841521999999984e-03 1.986736381732000067e+00 5.871536376718999861e+00 1.975683875494000041e+00 1.024397854299999994e-01 5.830847250438999652e+00 1.932027456014999922e+00 6.012591059380000047e+00 7.810726491946000216e+00 7.142456711000000347e-02 6.006709934356999625e+00 1.983421684614000036e+00 1.995763031562000078e+00 4.026146504576000318e+00 1.975864407905000064e+00 2.025781931311999795e+00 5.979768167100999676e+00 3.967569925993000179e+00 1.270994905400000055e-02 6.021537071645999717e+00 5.869221930801000298e+00 1.889821931368000030e+00 4.090296131578999628e+00 5.837316414270000031e+00 5.956105352035000244e+00 1.931873876829000025e+00 5.371918593700000105e-02 3.908626020720999961e+00 1.991290592678000015e+00 1.936135209834999982e+00 5.895845261500999968e+00 7.933845360629000254e+00 2.069628041090000092e+00 5.773828829333999657e+00 2.005726143262999805e+00 3.995600128335000001e+00 3.969263472285000205e+00 1.989503994829000089e+00 5.916728148433000101e+00 5.885802617202999798e+00 7.948396043893000140e+00 5.805510834911999929e+00 5.936226848782999888e+00 5.928932448002999678e+00 7.824243051336999599e+00 3.966815892257999909e+00 5.952231137110000070e+00 2.007038772151000128e+00 5.876848945506999655e+00 4.000756206344999732e+00 1.939247803013000038e+00 5.907950979427000426e+00 5.954813827779999791e+00 3.898041178973000065e+00 3.969157204655000104e+00 6.037127406517000416e+00 5.853374148879000316e+00 5.898608585660999992e+00 4.031491424219000308e+00 5.940604192764999958e+00
6.013778602799999679e-02 7.936737091274999933e+00 1.332861211199999965e-02 1.170570856100000036e-02 3.992309238694999873e+00 3.962860378574000197e+00 3.827794638763000190e+00 6.147482310699999702e-02 7.835141178636000348e+00 4.011501917531999695e+00 3.912537101382000060e+00 1.262815423300000031e-02 -9.276401408000000195e-03 8.562740630100000583e-02 3.881632083988999948e+00 7.891920337582000400e+00 3.963238117059999954e+00 2.295856074600000074e-02 3.916106049806999945e+00 7.959464759241000387e+00 3.934507232772999963e+00 3.975140168204000179e+00 4.039071544360999688e+00 3.871771505778999867e+00 2.050790167129000086e+00 2.048044006032000208e+00 1.990557658840000022e+00 1.962291391593000034e+00 1.987446250746000009e+00 5.919793299833999711e+00 1.984707190805000021e+00 6.039308503654999605e+00 1.976334143029000012e+00 1.998402998391999974e+00 5.927997880420000421e+00 5.845729900421999581e+00 5.902832214273000311e+00 1.952054537867000006e+00 1.930795289621000110e+00 5.890229286329000224e+00 2.052425606374999933e+00 5.848226608863999587e+00 5.906756253042000360e+00 5.939895629982999914e+00 1.932997769423999923e+00 5.923068568736000294e+00 5.990792420344999591e+00 5.916435259735999708e+00 1.907671134019000014e+00 2.216034281359000158e+00 7.827385886813000404e+00 7.801457445628999565e+00 1.988202196071999994e+00 2.053586146269000157e+00 1.975592040276999972e+00 4.695033976199999848e-02 1.944111631676999963e+00 2.054875717873999807e+00 2.105438268073000163e+00 3.876229748427999944e+00 1.366719181100000020e-02 1.966367937952999911e+00 5.860020253416999836e+00 1.999517408773999971e+00 1.668100241819999996e-01 5.811157705341999602e+00 1.934811909555999909e+00 6.040539577855000175e+00 7.817223430200000323e+00 9.490703009999999773e-02 6.026245448337999910e+00 1.983629376731000038e+00 2.000220485868999809e+00 4.042078636120000290e+00 1.966831777299999917e+00 2.052112938101999795e+00 6.003981483110999662e+00 3.947056815098000104e+00 7.873828000745000111e+00 6.065861058309000242e+00 5.865948768696999771e+00 1.865879123620000080e+00 4.092294041357999568e+00 5.819415628666000373e+00 5.977701909358000165e+00 1.890085720731000007e+00 8.429429988500000692e-02 3.894578653762000187e+00 1.983917012215999920e+00 1.889524609386000087e+00 5.861881664758000099e+00 7.948600303074999651e+00 2.104908389699999827e+00 5.708022342088000300e+00 2.030620319031000154e+00 4.006622510059999698e+00 3.955066245389000201e+00 1.990017822778000101e+00 5.978819934278000403e+00 5.873897230189999874e+00 7.945214362999999835e+00 5.795028686138000040e+00 5.949100550897999717e+00 5.904962996251000185e+00 7.842532087476000058e+00 3.974969242995999963e+00 5.953170599225999560e+00 2.003328951914999934e+00 5.854054640401000320e+00 3.980191577553000126e+00 1.926497083774999952e+00 5.898785953333000265e+00 5.908604500126999781e+00 3.880347224694999930e+00 3.976514360222000111e+00 6.044122420272000085e+00 5.864936099518000212e+00 5.909605364884000345e+00 4.003721535649000351e+00 5.984496121017000014e+00
6.607500594000000060e-02 7.937372890375000267e+00 2.056074207999999959e-02 1.101281206800000002e-02 3.990300273222000094e+00 3.977288035767999830e+00 3.805241176871999809e+00 6.576697416900000037e-02 7.834362476229999928e+00 4.030306173392999902e+00 3.892110292927999815e+00 1.445114074399999997e-02 -8.917299747000000110e-03 1.034640018759999947e-01 3.873674055517000170e+00 2.561515303099999932e-02 3.964460581537999850e+00 3.048190417500000124e-02 3.902387959593999867e+00 7.958180172071999792e+00 3.942935423773000103e+00 3.989449628258999958e+00 4.060727729331000013e+00 3.850458585629000119e+00 2.068923981231999942e+00 2.084016837987999970e+00 2.004754910462000161e+00 1.973449240369000046e+00 1.983115846550000061e+00 5.933138343342999832e+00 1.980668307253999894e+00 6.044361506132999828e+00 1.970650875925999967e+00 1.994763671157000040e+00 5.896589963465999951e+00 5.840352646331999686e+00 5.925634102635999767e+00 1.927200150787000021e+00 1.925225343823999902e+00 5.881521686046999875e+00 2.040728615893999898e+00 5.832923393420999858e+00 5.896618480704000298e+00 5.936107442887999852e+00 1.952370986418999976e+00 5.938824016036000408e+00 6.019972942497999746e+00 5.902478932632000408e+00 1.873263077655999975e+00 2.245897119045999979e+00 7.814133987285999616e+00 7.792087838410999723e+00 1.978650931960000081e+00 2.088376468682000109e+00 1.978806163782000027e+00 7.805316572499999828e-02 1.939680421317999892e+00 2.098390151325999931e+00 2.131803519967999883e+00 3.904816511746000085e+00 -4.242796705000000286e-03 1.963730905615000077e+00 5.840158067525000440e+00 2.008309793755000072e+00 1.847801074800000110e-01 5.796714336731000117e+00 1.952313116250000036e+00 6.072376195034999924e+00 7.836959698600000301e+00 7.512524254300000093e-02 6.043294656934000031e+00 1.986534091638000099e+00 1.998240672722999989e+00 4.038619976102999942e+00 1.958452820128000038e+00 2.071899313961000022e+00 6.059191616930999835e+00 3.899010086860999813e+00 7.878397922220999661e+00 6.112968310545999984e+00 5.856970514942999806e+00 1.878373553844000066e+00 4.069757177359999645e+00 5.820891154455000382e+00 5.992661226884999692e+00 1.865688405171000097e+00 7.471248734900000354e-02 3.899843949286000200e+00 1.982683741265000021e+00 1.861797073351999954e+00 5.798287352028999919e+00 2.174178334399999926e-02 2.119482541556000132e+00 5.672380795766000183e+00 2.071369457958000204e+00 3.985453624374000192e+00 3.913974632427999811e+00 2.027683085707999933e+00 6.038927445015000117e+00 5.886028655219999628e+00 7.953636662864999707e+00 5.808769990680000106e+00 6.005169975639000235e+00 5.871703877858999832e+00 2.895602296300000059e-02 3.980855635234000101e+00 5.969022699498999884e+00 1.984029085488999922e+00 5.855019575586999814e+00 3.947355219752000099e+00 1.927587797633999900e+00 5.900580732284000263e+00 5.853344117889999865e+00 3.887334013609000216e+00 3.955939297366999785e+00 6.029472303884999995e+00 5.878803091019999982e+00 5.937797616345999785e+00 3.951092320283999815e+00 6.014342517091000317e+00
7.130642232099999867e-02 7.942240898427000317e+00 2.576606689399999969e-02 8.498005343999999808e-03 3.990324340408000214e+00 3.988957023824999837e+00 3.789163741796000018e+00 6.748334713699999377e-02 7.837189411049999777e+00 4.047751964141999892e+00 3.878918183640000183e+00 1.456831167299999993e-02 -9.272855747000000037e-03 1.174770712649999965e-01 3.870729337644999823e+00 2.909457293799999969e-02 3.967179072866999778e+00 3.882807710600000295e-02 3.894959926996000021e+00 7.961244752115000267e+00 3.952648951243999953e+00 4.004818736456999595e+00 4.082579231589000379e+00 3.832524490616000090e+00 2.076461566669999925e+00 2.121515212517000037e+00 2.025505872222999937e+00 1.983877840534000070e+00 1.988612025619000079e+00 5.938589192972999697e+00 1.977439792958000098e+00 6.041956077142000225e+00 1.958613537208000022e+00 1.992918016218000021e+00 5.876911941218000202e+00 5.848806389524000338e+00 5.955778452452999971e+00 1.908303538271000077e+00 1.926612127727999946e+00 5.873267649403000057e+00 2.024872250861999845e+00 5.819752371758999843e+00 5.886463403200999700e+00 5.933814152067999892e+00 1.986413592819999963e+00 5.954695705111999970e+00 6.060373379578999575e+00 5.878854395392999699e+00 1.820681769773000003e+00 2.239047176376999904e+00 7.832125252166999729e+00 7.824814084617999654e+00 1.970290755716000097e+00 2.127600067972000186e+00 1.975124788393000097e+00 1.023008539649999937e-01 1.954025610298000037e+00 2.137315195617000008e+00 2.143981941993000184e+00 3.928529729086000177e+00 7.828851118929000208e+00 1.971924222171999919e+00 5.806921645032000256e+00 2.000426821298999958e+00 1.319965122960000126e-01 5.790757950468999660e+00 1.972182716660999979e+00 6.092486155029000372e+00 7.842321175490999607e+00 3.034500769199999920e-02 6.053737991564999810e+00 1.997515514187000019e+00 1.987867944790000063e+00 4.032529671629999868e+00 1.954560564694000080e+00 2.078779050166000175e+00 6.121861027345000039e+00 3.873080282681999886e+00 1.668972129699999862e-02 6.144679231659000429e+00 5.840533105776000156e+00 1.914069923970000087e+00 4.068971649789999923e+00 5.835896287986000353e+00 6.000655249991000417e+00 1.856887977840999904e+00 3.210752385900000200e-02 3.907681142213999870e+00 1.990897842637999959e+00 1.854364314993000029e+00 5.859570333964000177e+00 7.967826121308999809e+00 2.126234720494000197e+00 5.662405397118999595e+00 2.109046304412999895e+00 3.959769215900999839e+00 3.884663778530999867e+00 2.085161794291999993e+00 6.079786431453999995e+00 5.905007380352000013e+00 7.951629246020999631e+00 5.830335716469000396e+00 6.027779997021999847e+00 5.928337857283000112e+00 4.386367107599999787e-02 3.984478909752999787e+00 5.993756159792999583e+00 1.959724120721000107e+00 5.880355258442000022e+00 3.934957799233000042e+00 1.940808142360000099e+00 5.908158210094000218e+00 5.805983947394000033e+00 3.942850230383000198e+00 3.928277910902000070e+00 5.996067312766999891e+00 5.886814181487999953e+00 5.979658880804000098e+00 3.923387026548999845e+00 6.028053813228999580e+00
7.582253793000000297e-02 7.949239190806999922e+00 2.860241744299999930e-02 7.893518597816999716e+00 3.991162113860000193e+00 3.997392731187999981e+00 3.778928120405999902e+00 6.631527470900000498e-02 7.842256871924999651e+00 4.064012822498000332e+00 3.873415643056000057e+00 1.259278748600000004e-02 -7.113978564999999879e-03 1.261807345360000110e-01 3.872288084227000216e+00 3.000367411700000098e-02 3.970551182968999893e+00 4.704390112399999685e-02 3.890071773187000037e+00 7.967095031522999804e+00 3.960989236050000084e+00 4.019474514919999741e+00 4.101816293086000265e+00 3.819204909570999895e+00 2.075449283250999866e+00 2.144817975890000117e+00 2.048485510573999857e+00 1.987555456258000008e+00 1.991100164299999919e+00 5.936536879892999607e+00 1.968932999908000081e+00 6.042379061702000342e+00 1.945960762297999969e+00 1.996737277934000021e+00 5.881553110195000045e+00 5.865265518780000242e+00 5.986408863873999842e+00 1.898112112191000067e+00 1.928886227878999993e+00 5.873165264929999907e+00 2.020321338457999882e+00 5.811964994490000258e+00 5.883799986960999817e+00 5.931557980946999820e+00 2.013790301975999952e+00 5.968409789362000062e+00 6.097609380208999674e+00 5.859800209839000296e+00 1.760051538519000092e+00 2.198549660822000096e+00 7.862751953275999739e+00 7.875000607466000169e+00 1.967158486051999944e+00 2.161081013936999806e+00 1.965553005897999972e+00 1.024670241060000042e-01 1.979795140698999978e+00 2.165139345035000051e+00 2.144069623126000135e+00 3.945136320847999922e+00 7.794304831155000279e+00 1.976017240375999906e+00 5.758204427756999699e+00 1.981900783781000097e+00 7.828789016199999562e-02 5.799533375395999890e+00 1.979678160476000093e+00 6.087597980311000079e+00 7.840482387996000391e+00 7.886083631650000036e+00 6.051383235986000031e+00 2.017901651157000043e+00 1.970639750593000006e+00 4.046984483103000407e+00 1.957027224271999932e+00 2.070507098413000069e+00 6.159845814144000009e+00 3.874684291386000012e+00 3.209576152199999921e-02 6.144999165190999868e+00 5.819667942204000077e+00 1.949843184159000042e+00 4.073804782628999810e+00 5.857608544648999604e+00 6.002537751849000180e+00 1.859906734066000045e+00 5.515305946000000417e-03 3.915090071978000186e+00 2.008710254299999942e+00 1.864284151147999946e+00 5.890339141697999992e+00 7.949756819814999709e+00 2.138400017962000188e+00 5.667909905392000347e+00 2.122488594988999999e+00 3.941469670729000008e+00 3.874023407264000074e+00 2.130922374794999907e+00 6.085625562784000131e+00 5.907724408541000116e+00 7.946332269331000120e+00 5.837729483777000183e+00 6.041172173914000076e+00 6.002743441599999841e+00 3.502585182399999691e-02 3.983300171869000206e+00 6.014717804602000228e+00 1.945543661034000005e+00 5.922748100874000166e+00 3.955784324856999934e+00 1.958124376855999937e+00 5.907855156856999912e+00 5.783641327458999726e+00 4.018199783030000027e+00 3.920755787462999908e+00 5.953658207173000427e+00 5.882868651295999562e+00 6.020975701215999898e+00 3.933415550119999882e+00 6.027629846345000431e+00
7.933079616999999528e-02 7.955239034904000306e+00 2.868623320099999985e-02 7.894260544293000059e+00 3.992718400952000035e+00 4.002586621530999977e+00 3.773789745611999980e+00 6.197187657599999983e-02 7.847718711108999656e+00 4.078334181905000300e+00 3.875807298329000172e+00 8.009137032999999808e-03 -5.127379100000000302e-04 1.272085222090000023e-01 3.877800570320999896e+00 2.713498823399999871e-02 3.974603796358000096e+00 5.369789405300000318e-02 3.884971206768999874e+00 7.972751700365000360e+00 3.965711866872000169e+00 4.030833142839999717e+00 4.116429051825000407e+00 3.811978400086000196e+00 2.067136527354000108e+00 2.145032387830999809e+00 2.067292509546000190e+00 1.982360114462000000e+00 1.986132524755999995e+00 5.930137098240000348e+00 1.952371484418000014e+00 6.050674644114000245e+00 1.942861892103999955e+00 2.006592015747000080e+00 5.910551091345999986e+00 5.880425224469999712e+00 6.012257060437000256e+00 1.894145049048999940e+00 1.931916005264000091e+00 5.884828959635999723e+00 2.038314740410000159e+00 5.808289535116999858e+00 5.894009585117999883e+00 5.930666823313999636e+00 2.018882766354999969e+00 5.979315350579000210e+00 6.117462069332000318e+00 5.859448987646000084e+00 1.709843113440999929e+00 2.134970575055000097e+00 7.876951257792000227e+00 5.071255022000000119e-03 1.972219803178999920e+00 2.177572002798000117e+00 1.955161254345000099e+00 7.770582953599999843e-02 2.006792142319000050e+00 2.175039938783999816e+00 2.132743012903000057e+00 3.959474327980000208e+00 7.795057997464000188e+00 1.962424623641999988e+00 5.702243534202000141e+00 1.964744699149999940e+00 8.349651747200000085e-02 5.825939304450000300e+00 1.966862564189000073e+00 6.058780496304000174e+00 7.851175189813000443e+00 7.890358170129999849e+00 6.035279924136999874e+00 2.041958221637000026e+00 1.952382763516000042e+00 4.074173861205999891e+00 1.965025564374000000e+00 2.050654871893000220e+00 6.153166128768999599e+00 3.884944861685999840e+00 4.149416675900000073e-02 6.114669931232000089e+00 5.801909304458000349e+00 1.963748874450000015e+00 4.055602723842000046e+00 5.882222061950000302e+00 6.001501832355000232e+00 1.871615834938000100e+00 2.939973027300000000e-02 3.924745967709000194e+00 2.032413012211999881e+00 1.885069040062999912e+00 5.934783898162000249e+00 7.947265055289999935e+00 2.160783999097000141e+00 5.681230524879000043e+00 2.103645213216999821e+00 3.929826901601999989e+00 3.873536614940999989e+00 2.138938803454999871e+00 6.053994951976999772e+00 5.883352034418000365e+00 7.970265173192999875e+00 5.818789319252999803e+00 6.034950998262999633e+00 6.070443603723999715e+00 2.865295394500000023e-02 3.980327961448999918e+00 6.021230876421999945e+00 1.951712544660999971e+00 5.970996616402000079e+00 3.996670916209000168e+00 1.969886421797000020e+00 5.890945877414999643e+00 5.794116957787999844e+00 4.041374962343000199e+00 3.940847879637999984e+00 5.918913066898999986e+00 5.869055146565999692e+00 6.047550127633999573e+00 3.955709558659000091e+00 6.021307558465999854e+00
8.123274257000000220e-02 7.958134824911000216e+00 2.600608844999999919e-02 7.891263719814999966e+00 3.995466706066999940e+00 4.004155469458000383e+00 3.773548898852999933e+00 5.489200855700000076e-02 7.852418849760000263e+00 4.088824634915999567e+00 3.885231870818000033e+00 6.488626209999999537e-04 9.868138565000000167e-03 1.192013140609999994e-01 3.886378910854999980e+00 7.922448539906000065e+00 3.979002974958000038e+00 5.824691556699999884e-02 3.880009686136999925e+00 7.976044505231000059e+00 3.965346752413999809e+00 4.036511975396000373e+00 4.125032346991999610e+00 3.810999371537000080e+00 2.054444563190000128e+00 2.125943003323000013e+00 2.077227665047999938e+00 1.969630141916000055e+00 1.982998499370999923e+00 5.923160333449000170e+00 1.929816089498000098e+00 6.062998320332000368e+00 1.956077497279000044e+00 2.020469552544999825e+00 5.943624698378999760e+00 5.886209393165000137e+00 6.028078281958999973e+00 1.891397795964999906e+00 1.941562276300000001e+00 5.904847839832999767e+00 2.075686911937999923e+00 5.801944243910999610e+00 5.914190580618999604e+00 5.933986054664000420e+00 2.000895288319000098e+00 5.985702687025000301e+00 6.118868142779000152e+00 5.877315798064000063e+00 1.687726332300000021e+00 2.066323150101999850e+00 7.871628599523999625e+00 7.894689394699000218e+00 1.984975440406000047e+00 2.172189150589999951e+00 1.948347462991999901e+00 4.433400027300000296e-02 2.027122376443999840e+00 2.160260979305999918e+00 2.108844461268000181e+00 3.957011996114999874e+00 7.826711246712999781e+00 1.930046895430999943e+00 5.656376224625000226e+00 1.958152019032999958e+00 1.234513424659999942e-01 5.863936839806999757e+00 1.936459253830000060e+00 6.021463456242999612e+00 7.869210841219000052e+00 7.920072440950000292e+00 6.014352219954999690e+00 2.057673530917000004e+00 1.940922556307999924e+00 4.073630246150999668e+00 1.975907544657000026e+00 2.027646386835999959e+00 6.104596473828999947e+00 3.908620577388000061e+00 3.633577865600000345e-02 6.070750045900999758e+00 5.797565818172000007e+00 1.947470794490000046e+00 4.038157285758999571e+00 5.908574526656000359e+00 6.002705463499999894e+00 1.891846602960999935e+00 8.467979212100000541e-02 3.925522333623999938e+00 2.056234610583000055e+00 1.908990539311000045e+00 5.984273220473999899e+00 7.979227975886000301e+00 2.186353385423999818e+00 5.699602956234000040e+00 2.066951981869999955e+00 3.932075725667000032e+00 3.885625523203999787e+00 2.104567480387999900e+00 5.999779328028999714e+00 5.789675495824999629e+00 4.148362484200000116e-02 5.779994770913000401e+00 6.008175699420999827e+00 6.114054596827999788e+00 3.038223746100000150e-02 3.983081324881999841e+00 6.012044636576000300e+00 1.975765283259999894e+00 6.013194587193999574e+00 4.037259996469999557e+00 1.967498237872999933e+00 5.863283809538000213e+00 5.837395580702000153e+00 3.990307743253000083e+00 3.969160887465000176e+00 5.905805566267999573e+00 5.855746294301000354e+00 6.052378273559000377e+00 3.969304143576000143e+00 6.018566731867999842e+00
8.092066723000000683e-02 7.958240376541000138e+00 2.063117487699999905e-02 7.885528592343000298e+00 4.000031618438000258e+00 4.001391410823000427e+00 3.829355511255999822e+00 8.020591063346000027e+00 7.856461019026999892e+00 4.057469922726999911e+00 3.952245119880000157e+00 7.872583506303000078e+00 2.147948898599999837e-02 1.025394435950000016e-01 3.897480330925000125e+00 7.918899212904999985e+00 3.982930333714000071e+00 6.141863425300000262e-02 3.878343907960000170e+00 7.977090767241000080e+00 3.960025850557999938e+00 4.035570856822999986e+00 4.127230025216999998e+00 3.814894491365000029e+00 2.040898538622000213e+00 2.099331585412000045e+00 2.075828902347999882e+00 1.953821307851999922e+00 1.993810905097999964e+00 5.919335205075999973e+00 1.909141494642000003e+00 6.069152876028000243e+00 1.983087756675000035e+00 2.034886471027999910e+00 5.961094877358999788e+00 5.881878259016000143e+00 6.029759031482999632e+00 1.887811208170000032e+00 1.963462098951999968e+00 5.924600595148000082e+00 2.114624963559000204e+00 5.787157074158000292e+00 5.934127652993000268e+00 5.942723909047000319e+00 1.973157980517999954e+00 5.985515547463999830e+00 6.115147352956999960e+00 5.895692658097999583e+00 1.702315253629999914e+00 2.012577867931999887e+00 7.858277786354999961e+00 7.878091940505999702e+00 2.001503267719999979e+00 2.149933362900000144e+00 1.945388197853999968e+00 1.512515236900000004e-02 2.039149662733000135e+00 2.117931777058000176e+00 2.070981421482000151e+00 3.929772302076000035e+00 7.864271793402999755e+00 1.893165349813999976e+00 5.638813853639000229e+00 1.964483677543999995e+00 1.233865840919999984e-01 5.899111031612999767e+00 1.900141321186999965e+00 5.993372686493000145e+00 7.879031947762999977e+00 5.504560019500000234e-02 6.002688105475000313e+00 2.054078280708000026e+00 1.940562338879000093e+00 4.022609600377999861e+00 1.986611001722000003e+00 2.010227346583000063e+00 6.033745981628999999e+00 3.958950968956000072e+00 7.906382686476000288e+00 6.035940211710999925e+00 5.814961435557999714e+00 1.909400118093999899e+00 4.049303953056999639e+00 5.936389179252000048e+00 6.008993522745000426e+00 1.921534960842999906e+00 1.158896314639999980e-01 3.908771737683999881e+00 2.072164136378999988e+00 1.929225485973999898e+00 5.980079780136000167e+00 5.333561174999999766e-02 2.199069510090999824e+00 5.724106842368000159e+00 2.045616458491999801e+00 3.956998867378000106e+00 3.911231196101999874e+00 2.048459792802999946e+00 5.946191415141999670e+00 5.751117814216000212e+00 5.576491580699999978e-02 5.745526899709999746e+00 5.970974006316000171e+00 6.128215075405000434e+00 1.968576094300000107e-02 3.992245571664999826e+00 5.995073229584000352e+00 2.004109373174999931e+00 6.039890738413999927e+00 4.066332901745999706e+00 1.946055880629000034e+00 5.842495552058999841e+00 5.908576771028999808e+00 3.921149547189000106e+00 3.980936538877999809e+00 5.917847052813000275e+00 5.854669414205000422e+00 6.038058992555000337e+00 3.979650271890000202e+00 6.021864894949000124e+00