-2.919761348619999990e+04
-2.919715123820000008e+04
-2.919688604900000064e+04
-2.919686766279999938e+04
-2.919679779879999842e+04
-2.919651532130000123e+04
-2.919654795210000157e+04
-2.919671345149999979e+04
-2.919665667939999912e+04
-2.919661144730000160e+04
-2.919676169030000165e+04
-2.919691610840000067e+04
-2.919672802189999857e+04
-2.919637671279999995e+04
-2.919619741570000042e+04
-2.919639108430000124e+04
-2.919638788399999976e+04
-2.919583124239999961e+04
-2.919538205430000016e+04
-2.919535546299999987e+04
-2.919536593400000129e+04
-2.919487997969999924e+04
-2.919501036649999878e+04
-2.919526979819999906e+04
-2.919523980229999870e+04
-2.919554928940000173e+04
-2.919564310240000123e+04
-2.919505257649999839e+04
-2.919484561979999853e+04
-2.919519087800000125e+04
-2.919535641720000058e+04
-2.919554132259999824e+04
-2.919564953039999818e+04
-2.919580938719999904e+04
-2.919582561060000080e+04
-2.919599959030000173e+04
-2.919631295039999895e+04
-2.919619304310000007e+04
-2.919620892520000052e+04
-2.919631263760000002e+04
-2.919641235610000149e+04
-2.919653002259999994e+04
-2.919673058170000149e+04
-2.919672152840000126e+04
-2.919668751400000110e+04
-2.919677806910000072e+04
-2.919693317419999948e+04
-2.919702316380000048e+04
-2.919706542180000179e+04
-2.919698620939999819e+04
-2.919692568830000164e+04
-2.919683487759999844e+04
-2.919684459749999951e+04
-2.919685753489999843e+04
-2.919681403399999908e+04
-2.919690607760000057e+04
-2.919684840740000072e+04
-2.919674089299999832e+04
-2.919677666999999929e+04
-2.919698419920000015e+04
-2.919684254430000146e+04
-2.919664695379999830e+04
-2.919665152790000138e+04
-2.919655957570000101e+04
-2.919635454899999968e+04
-2.919616445609999937e+04
-2.919624988129999838e+04
-2.919608192559999952e+04
-2.919576337250000142e+04
-2.919567249580000134e+04
-2.919578776289999951e+04
-2.919564767049999864e+04
-2.919524726949999967e+04
-2.919521308510000017e+04
-2.919536577789999865e+04
-2.919522550409999894e+04
-2.919522895760000029e+04
-2.919548246419999850e+04
-2.919568602409999949e+04
-2.919559097729999849e+04
-2.919522132090000014e+04
-2.919508071539999946e+04
-2.919548720790000152e+04
-2.919580965329999890e+04
-2.919573895370000173e+04
-2.919546185239999977e+04
-2.919571561819999988e+04
-2.919607648780000090e+04
-2.919631140809999852e+04
-2.919643182900000102e+04
-2.919642741920000117e+04
-2.919650434980000136e+04
-2.919666527700000006e+04
-2.919678909619999831e+04
-2.919684463830000095e+04
-2.919682575709999946e+04
-2.919682453410000016e+04
-2.919688519499999893e+04
-2.919691857629999868e+04
-2.919682097190000059e+04
-2.919679513289999886e+04
-2.919678196119999848e+04
-2.919690223049999986e+04
-2.919699766169999930e+04
-2.919704212819999884e+04
-2.919698167240000112e+04
-2.919699623730000167e+04
-2.919688224210000044e+04
-2.919680746039999940e+04
-2.919688717259999976e+04
-2.919685805840000103e+04
-2.919675241370000003e+04
-2.919661867989999882e+04
-2.919652723219999825e+04
-2.919639306049999868e+04
-2.919650527660000080e+04
-2.919630520360000082e+04
-2.919603134130000035e+04
-2.919594183419999899e+04
-2.919606574140000157e+04
-2.919591084620000038e+04
-2.919566770049999832e+04
-2.919587258579999980e+04
-2.919587186909999946e+04
-2.919553359690000070e+04
-2.919543017909999980e+04
-2.919546938370000134e+04
-2.919487203220000083e+04
-2.919481595999999990e+04
-2.919515674940000099e+04
-2.919547884669999985e+04
-2.919541063330000179e+04
-2.919529169249999904e+04
-2.919525039969999852e+04
-2.919525457639999877e+04
-2.919585793389999890e+04
-2.919601053630000024e+04
-2.919583516880000025e+04
-2.919586507319999873e+04
-2.919620724759999939e+04
-2.919618111389999831e+04
-2.919632031700000152e+04
-2.919653888559999905e+04
-2.919656564970000181e+04
-2.919653574949999893e+04
-2.919662077750000026e+04
-2.919662946039999952e+04
-2.919661353650000092e+04
-2.919676305000000139e+04
-2.919697267890000148e+04
-2.919692659619999904e+04
-2.919683692460000020e+04
-2.919678239709999980e+04
-2.919679035989999829e+04
-2.919680791289999979e+04
-2.919690369179999834e+04
-2.919692856540000139e+04
-2.919684663619999992e+04
-2.919685069329999897e+04
-2.919680000060000020e+04
-2.919677434730000095e+04
-2.919677446380000038e+04
-2.919674848249999923e+04
-2.919655100949999905e+04
-2.919645764200000121e+04
-2.919646286949999921e+04
-2.919633359710000150e+04
-2.919631093479999981e+04
-2.919635254559999885e+04
-2.919628605759999846e+04
-2.919603198949999933e+04
-2.919580899890000001e+04
-2.919548330139999962e+04
-2.919542169070000091e+04
-2.919584219099999973e+04
-2.919593894780000119e+04
-2.919534622749999835e+04
-2.919475862409999900e+04
-2.919480751299999974e+04
-2.919556575810000140e+04
-2.919558746629999951e+04
-2.919550461050000013e+04
-2.919536717240000144e+04
-2.919509548279999944e+04
-2.919520877249999830e+04
-2.919542649230000097e+04
-2.919575038320000021e+04
-2.919583559629999945e+04
-2.919588236239999969e+04
-2.919583097529999941e+04
-2.919631225300000006e+04
-2.919644687649999833e+04
-2.919666609469999821e+04
-2.919640258650000033e+04
-2.919650303459999850e+04
-2.919644982190000155e+04
-2.919652203820000068e+04
-2.919663499320000119e+04
-2.919659941059999983e+04
-2.919673025490000146e+04
-2.919684604350000154e+04
-2.919701061589999881e+04
-2.919685383400000137e+04
-2.919685055469999861e+04
-2.919687197369999922e+04
-2.919693652920000022e+04
-2.919694847709999885e+04
-2.919684565819999989e+04
-2.919684866329999932e+04
-2.919674755699999878e+04
-2.919672182039999825e+04
-2.919678640630000154e+04
-2.919689889630000107e+04
-2.919664626090000093e+04
-2.919644577700000082e+04
-2.919642470500000127e+04
-2.919637363489999916e+04
-2.919667292430000089e+04
-2.919672097159999976e+04
-2.919631570569999894e+04
-2.919607675889999882e+04
-2.919586098029999994e+04
-2.919588470279999819e+04
-2.919557310979999966e+04
-2.919562181469999996e+04
-2.919526224820000061e+04
-2.919526215759999832e+04
-2.919564535210000031e+04
-2.919525664120000147e+04
-2.919548841869999887e+04
-2.919540321100000074e+04
-2.919543912279999859e+04
-2.919517791280000165e+04
-2.919556894209999882e+04
-2.919555983299999934e+04
-2.919536042470000029e+04
-2.919556839849999960e+04
-2.919589480309999999e+04
-2.919588892009999836e+04
-2.919561585299999933e+04
-2.919583970279999994e+04
-2.919603012170000147e+04
-2.919632280779999928e+04
-2.919649514400000044e+04
-2.919667467100000067e+04
-2.919667711419999978e+04
-2.919649185729999954e+04
-2.919662694330000159e+04
-2.919684797220000110e+04
-2.919685523580000154e+04
-2.919673657839999942e+04
-2.919677315480000107e+04
-2.919683485640000072e+04
-2.919677345409999907e+04
-2.919689610969999922e+04
-2.919696003199999905e+04
-2.919694231479999871e+04
-2.919683553000000029e+04
-2.919683098180000161e+04
-2.919687053269999888e+04
-2.919688808570000037e+04
-2.919691193230000135e+04
-2.919690015819999826e+04
-2.919684112499999901e+04
-2.919661285149999821e+04
-2.919655963310000152e+04
-2.919643695490000027e+04
-2.919641488519999984e+04
-2.919635348399999930e+04
-2.919635648080000101e+04
-2.919622531739999977e+04
-2.919620168930000000e+04
-2.919615519860000131e+04
-2.919580899059999865e+04
-2.919545967759999985e+04
-2.919560061910000150e+04
-2.919560734830000001e+04
-2.919551801889999842e+04
-2.919533994389999862e+04
-2.919535118990000046e+04
-2.919555445999999938e+04
-2.919517438670000047e+04
-2.919526402729999973e+04
-2.919538136210000084e+04
-2.919538128209999923e+04
-2.919511255890000029e+04
-2.919541052829999899e+04
-2.919539523320000080e+04
-2.919549607689999903e+04
-2.919562031890000071e+04
-2.919572532979999960e+04
-2.919600634160000118e+04
-2.919615367989999868e+04
-2.919638886990000174e+04
-2.919646614419999969e+04
-2.919664132949999839e+04
-2.919667965819999881e+04
-2.919669277860000147e+04
-2.919663410930000100e+04
-2.919658685039999909e+04
