-3.310511943700000098e-02 -5.677136289200000047e-02 5.139557500599999801e-02 4.019614412699999695e-02 6.238412311299999791e-02 -1.277297498499999941e-02 1.354898726769999950e-01 6.505214296000000340e-02 3.906635106200000151e-02 -1.428659905359999926e-01 2.178287130000000128e-04 -7.525670212599999687e-02 -6.126901931099999754e-02 -1.348070564689999862e-01 4.850385987300000201e-02 7.641745593800000624e-02 7.293536977499999463e-02 -4.345694213899999742e-02 8.475357537199999791e-02 -4.338007952000000160e-03 2.368942380399999964e-02 -8.965561482999999388e-02 5.174984966999999700e-03 4.282819251000000160e-02 -1.670942675519999920e-01 8.283992898399999971e-02 5.261061527299999707e-02 7.852289591599999341e-02 2.168141979609999881e-01 -7.477061149199999701e-02 -1.999745421730000083e-01 -1.160579033999999954e-01 2.923362123489999798e-01 -3.773960212949999948e-01 -2.952192237640000050e-01 -3.072304476400000151e-01 1.744665208079999863e-01 -1.485079535190000077e-01 1.557930964029999865e-01 -1.411164710510000031e-01 -2.335846619539999891e-01 -1.778049309370000053e-01 2.392159648939999883e-01 1.741348333999999942e-01 2.357890683099999884e-01 3.379597369049999744e-01 2.735978650920000144e-01 -2.298762679949999943e-01 -1.880249488799999938e-02 -5.785674662399999807e-02 -6.436966012799999470e-02 -5.010052771299999819e-02 -3.009918807800000123e-02 -6.949967833700000652e-02 3.573207506000000006e-02 4.654126264499999777e-02 5.520206657000000135e-03 8.863430838300000170e-02 -6.640482627600000076e-02 2.574587475890000032e-01 3.163870977000000050e-03 1.830933375000000016e-02 -2.865028290300000030e-02 -1.035689498200000058e-02 1.649813236650000126e-01 -5.848365796800000099e-02 8.115073570899999922e-02 5.452364951699999879e-02 2.065831505079999963e-01 1.089584875040000012e-01 -5.097599917000000119e-02 -6.088466926399999785e-02 -1.118728878000000001e-03 -9.441521118300000293e-02 -6.591028702500000003e-02 5.249774310000000083e-02 1.456321417160000020e-01 -2.421837216100000134e-01 -1.848658610589999918e-01 1.306711544170000017e-01 3.072022117900000127e-02 2.012074122099999918e-01 -3.173989592009999750e-01 4.045680494400000216e-02 2.353595819899999969e-02 4.601607308800000073e-02 3.534308503900000092e-02 -3.086471511599999870e-02 -6.646137221000000296e-03 3.209601671799999778e-02 -5.927331511799999869e-02 2.278418069250000011e-01 -6.870191069299999564e-02 9.397865291800000520e-02 8.998248100300000607e-02 -1.888991226810000090e-01 -2.613500201780000198e-01 8.778063114799999900e-02 9.288820309999999995e-04 4.754392205699999735e-02 5.449148104399999942e-02 6.823794041800000654e-02 -7.053945495100000240e-02 5.261361673400000161e-02 1.800389084800000164e-02 5.257706283199999747e-02 3.204074996700000122e-02 -1.703328669299999931e-02 -1.444549446000000003e-03 -2.006611536779999982e-01 6.393462978899999705e-02 -1.602958013989999875e-01 -8.176942105300000208e-02 9.207588081299999949e-02 1.255449198290000123e-01 -7.963246318000000157e-02 2.435950916599999988e-02 -2.005790549899999844e-02 -1.294307049710000102e-01 -3.194620567200000261e-02
-1.008128752750000051e-01 -9.587853525900000284e-02 -1.893222190480000067e-01 -6.517487455900000670e-02 2.888455379439999748e-01 -2.885058245109999864e-01 4.270661759500000154e-01 -2.063439639419999971e-01 -1.087280464579999939e-01 -4.410728494069999783e-01 4.223042872609999998e-01 -1.662299628489999903e-01 -2.861541584530000182e-01 -3.475779679980000036e-01 2.479363091519999895e-01 2.435982467720000100e-01 1.680642547179999891e-01 2.631285790000000013e-03 4.609741771520000087e-01 -1.243162580369999992e-01 1.816489242090000011e-01 -6.592369454499999448e-02 1.407612816669999989e-01 7.884018151100000149e-02 -5.668662785989999620e-01 5.375954273220000523e-01 2.204859965279999945e-01 1.402456696140000070e-01 -6.621046826999999954e-03 -2.623821183300000248e-01 -4.352300714199999754e-02 -8.249779630389999507e-01 -1.851304381300000051e-02 -4.102620404289999967e-01 -1.142752366240000067e-01 1.928113891509999900e-01 5.999232242549999983e-01 -2.116542963770000063e-01 2.902550445109999822e-01 -3.607958230639999875e-01 -7.463530730490000042e-01 -2.887798430410000172e-01 -4.420077087899999813e-02 2.108279653719999924e-01 1.255821154107999993e+00 3.431781231039999769e-01 8.764907541090000143e-01 -1.149297097435999948e+00 -2.045522232160000009e-01 -3.553199967010000071e-01 -3.727165227779999923e-01 -6.102979958199999944e-02 -6.384843983599999828e-02 -1.534754498700000025e-02 3.085161827000000058e-03 1.740850584410000013e-01 1.803024420859999921e-01 8.349977585600000529e-02 -2.072858586740000120e-01 7.767362689069999826e-01 -2.106636688700000079e-02 2.192296783100000090e-01 -8.833552114899999308e-02 -1.467793957619999978e-01 2.938743429349999770e-01 1.364542192600000023e-02 2.750190816870000110e-01 1.352603133780000133e-01 6.541678239229999914e-01 -4.224924289690000223e-01 -5.188706780800000223e-02 -6.208756281399999827e-02 -5.986287972599999702e-02 -3.183320518860000004e-01 -6.202018474999999864e-02 1.654667908999999911e-03 4.989642999919999822e-01 -1.033053722990000090e+00 -7.494575408499999647e-02 1.979895232870000077e-01 -4.267617804400000020e-02 5.943023326580000321e-01 -1.106734276879000056e+00 2.645776677669999799e-01 -7.602550877100000548e-02 2.379897874299999883e-01 -2.003456013540000080e-01 3.643044013300000272e-01 3.876354959400000327e-02 1.891251382140000104e-01 1.593517129589999970e-01 4.540466093400000180e-01 -3.544087833960000156e-01 3.865805861869999749e-01 3.169835187999999748e-01 -8.008232204930000320e-01 -9.595531889930000169e-01 5.434296718700000195e-01 6.603114613600000182e-02 3.576008622569999962e-01 3.767857524650000123e-01 3.970173937820000165e-01 3.529709107299999760e-02 5.031780817469999612e-01 7.108652876750000127e-01 -8.818138563100000327e-02 1.756738066009999877e-01 -2.508670148079999995e-01 2.090107978330000005e-01 -5.844220618759999875e-01 1.609587671209999904e-01 4.183740863200000049e-02 -2.809613635189999736e-01 -3.785053790100000037e-02 -3.737166318590000036e-01 -3.018401853559999903e-01 8.088340366799999515e-02 1.464624387790000037e-01 -8.625138588949999852e-01 -1.724504952139999936e-01
-1.147834658030000010e-01 2.188933477999999849e-02 -2.860437749179999822e-01 -1.744984773259999900e-01 2.353208177999999984e-01 -5.448413378490000181e-01 6.351523578509999934e-01 -3.463585589520000174e-01 -6.443601536599999346e-02 -5.569533186620000409e-01 6.837551324720000379e-01 -2.141060059759999912e-01 -2.941327428489999840e-01 -3.700371111549999870e-01 3.170477938740000057e-01 2.428786083970000120e-01 9.530578119400000270e-02 5.987492858099999898e-02 5.948317276000000264e-01 -4.328869008800000084e-02 1.360240953229999994e-01 -4.610120434000000017e-02 6.285946951099999347e-02 9.862238694899999603e-02 -7.249980210930000446e-01 5.543754624319999769e-01 2.944532048599999841e-01 1.593133438190000029e-01 3.927725325590000205e-01 -4.236077703900000269e-01 1.714166574679999999e-01 -9.615343956870000541e-01 -3.104406823449999964e-01 -2.330532688789999918e-01 8.937055288699999323e-02 5.829806816820000126e-01 5.835166576310000242e-01 -4.418309816999999723e-02 4.674669519440000087e-01 -3.999818539080000068e-01 -7.578776452619999660e-01 -2.178714534350000009e-01 -2.905274513200000186e-01 8.922991410199999918e-02 1.422196500380999984e+00 1.101514395840000049e-01 8.643822669280000204e-01 -1.206136465801000091e+00 -3.237626358949999839e-01 -5.703038857519999727e-01 6.821832122899999795e-02 3.769207131399999744e-01 -5.054817010200000210e-02 8.424805727199999317e-02 -7.429047079700000500e-02 1.733924672340000084e-01 3.022096009049999865e-01 1.330970109099999937e-02 -2.725417783019999929e-01 3.942394648449999983e-01 -5.013024568160000527e-01 2.986659898649999811e-01 -1.761966602660000047e-01 -2.720286695179999770e-01 -8.257451677679999991e-01 4.961424164000000081e-02 2.449736037440000125e-01 3.461037561900000281e-02 1.644943603029999923e-01 -7.776980589149999901e-01 -8.248500631400000616e-02 3.138470537199999910e-02 -1.224497614369999959e-01 -3.795379946449999875e-01 -1.772984988999999970e-03 -1.277624259219999892e-01 5.067646618709999995e-01 -5.095542389710000508e-01 1.589159077439999956e-01 5.568779034000000128e-03 -1.401729003849999933e-01 6.120597016969999693e-01 -4.543783946280000041e-01 2.938226880320000123e-01 -1.601749065030000085e-01 2.848054744249999826e-01 -7.211349333030000475e-01 3.202783884620000188e-01 8.684053662599999779e-02 3.144802331400000095e-01 3.229196841390000183e-01 4.594028073300000098e-02 -3.865019189109999975e-01 4.754515742489999752e-01 2.734379907369999807e-01 -5.839136531509999672e-01 -4.876045539020000263e-01 6.322561348580000296e-01 -6.478417566399999328e-02 3.865699202910000132e-01 1.568797643550000065e-01 3.843522608450000155e-01 8.652200672399999737e-02 6.937678820579999961e-01 3.575007622520000039e-01 -6.244182069399999840e-02 2.173858459920000041e-01 -2.901692693719999938e-01 3.688303120070000052e-01 -2.477310957290000115e-01 2.243259293779999997e-01 1.589879628260000011e-01 -1.994376423670000120e-01 3.749756504569999871e-01 -5.363939069709999785e-01 -4.130269075860000250e-01 1.678337043000000060e-03 2.579392030850000128e-01 -4.805619055640000248e-01 -2.825269152139999740e-01
-1.145617034340000034e-01 1.775813721579999893e-01 -2.999272699319999735e-01 -2.594616892530000052e-01 6.251958550300000528e-02 -6.563741379030000322e-01 7.633738254790000122e-01 -3.720893179820000118e-01 8.955932039300000536e-02 -4.611818032569999781e-01 8.513588023829999907e-01 -2.437847673409999916e-01 -7.230947660700000335e-02 -3.600209309999999885e-01 3.245244042259999850e-01 3.013840465499999927e-02 -1.682587236500000111e-02 7.101580714499999836e-02 4.630769797320000158e-01 1.292845185110000072e-01 -3.642428175500000281e-02 -5.986129933699999711e-02 -1.604508686949999985e-01 1.915257947840000030e-01 -5.710568587119999595e-01 3.166213103900000075e-02 2.897543804709999948e-01 -7.792406182800000469e-02 5.376361423269999662e-01 -5.298692296089999587e-01 1.760113532700000039e-02 -4.974317536360000069e-01 -3.786760433390000125e-01 5.913212567900000272e-02 4.488134084309999827e-01 5.908985545060000399e-01 2.187357665190000078e-01 2.918401649630000261e-01 3.271551686390000158e-01 -9.917695875099999392e-02 -2.621781560340000206e-01 2.364494990999999914e-03 -1.315887000669999918e-01 -4.825917877099999975e-02 6.982794619219999666e-01 -1.405084863190000088e-01 4.311053850059999859e-01 -5.856787507999999809e-01 -3.144805649379999735e-01 -6.361704444700000405e-01 5.420915066210000299e-01 7.120984397289999990e-01 9.634494355000000274e-03 6.250784135999999658e-02 -1.346286016400000118e-01 -1.212468252329999968e-01 3.086862296119999849e-01 -1.035338872850000008e-01 -2.563040832899999844e-01 -1.658699407130000136e-01 -5.523399115079999921e-01 1.763843580320000048e-01 -2.559757762100000056e-01 -3.016670378549999865e-01 -1.343688636485999899e+00 9.643330343599999799e-02 2.271243016600000067e-02 -2.474141249619999927e-01 -3.560410996869999845e-01 -4.322050288739999746e-01 -1.491606704300000030e-01 1.233593955789999974e-01 -1.559041384900000105e-01 -8.478366247799999644e-02 6.591799944800000310e-02 -2.374018355989999940e-01 7.308261658400000416e-02 4.290649424269999956e-01 2.137685036670000094e-01 -3.093533192360000128e-01 -1.652523877909999883e-01 3.780148069150000012e-01 4.526928524339999815e-01 1.827780302700000026e-01 -1.594317479590000031e-01 2.541705892880000150e-01 -6.112713031049999968e-01 -1.552608324299999988e-02 1.477010848520000086e-01 3.344145446560000123e-01 3.582339243730000011e-01 -4.678359277279999784e-01 -1.451859329749999872e-01 4.022697368600000045e-01 -7.637291085200000051e-02 -6.529881813200000273e-02 2.374713225270000116e-01 3.217447441899999871e-01 -3.797655952419999870e-01 7.744785596799999561e-02 -2.748952062169999766e-01 9.331138011100000018e-02 7.663987040999999979e-03 5.955708553559999618e-01 -4.424126408590000059e-01 -5.878470613700000069e-02 1.111389630149999946e-01 -9.424678432100000447e-02 3.711883017320000144e-01 3.536908628000000054e-01 1.960644108719999945e-01 6.941096899899999728e-02 1.097301667229999972e-01 8.547401654920000480e-01 -1.432802142010000113e-01 -3.507448497430000200e-01 -1.433057846649999911e-01 1.944762799289999899e-01 4.678836416600000159e-01 -3.190865925820000060e-01
-1.154568088159999978e-01 1.811901793469999911e-01 -3.510891319059999960e-01 -2.926733255430000180e-01 4.237925929900000083e-02 -5.589287857560000239e-01 8.224842786489999780e-01 -4.105529339389999977e-01 1.975553878609999925e-01 -2.728582538089999732e-01 1.073054983065999890e+00 -2.931235127929999740e-01 2.377892953649999863e-01 -5.006916122250000267e-01 3.745606553310000253e-01 -2.530116865350000022e-01 8.717634666000000088e-03 -2.678382199600000055e-02 1.993413218729999936e-01 1.818701480869999998e-01 -1.853996941180000024e-01 -1.285849797049999910e-01 -3.274237624829999804e-01 4.155928170770000207e-01 -4.330906478859999909e-01 -7.858903404589999697e-01 8.226735540099999744e-02 -3.751832514389999984e-01 -2.211931239790000114e-01 -4.159445003900000271e-01 -2.828912640349999785e-01 1.367572655250000047e-01 -4.483341685199999926e-02 2.871557402270000225e-01 1.245107798887000072e+00 3.673874130179999864e-01 -5.084752431899999814e-02 4.637178341789999769e-01 -1.108698015999999911e-03 4.010074664220000251e-01 5.837418210910000349e-01 2.711320368380000234e-01 3.608271517589999866e-01 -3.668298463800000186e-02 -4.075803599980000191e-01 -1.611851186519999979e-01 -2.283069600469999905e-01 2.155622855680000005e-01 -1.247434335239999970e-01 -5.624853907169999889e-01 1.981770717970000040e-01 2.856312123049999929e-01 8.742825374700000096e-02 -1.119500596530000058e-01 -1.039888528409999985e-01 -4.281240353310000191e-01 1.814277651350000020e-01 -1.999557173940000043e-01 -2.040531609529999957e-01 -1.423845483079999863e-01 1.162264446079999958e-01 -7.599516124300000064e-02 -2.678513478039999951e-01 -1.854713887220000024e-01 4.656193140499999966e-02 2.386400883489999958e-01 -2.247063216279999998e-01 -4.484281903189999974e-01 -1.512573078789999914e-01 2.254957037160000011e-01 -2.316282904910000051e-01 1.572708116509999865e-01 -1.174724255170000037e-01 3.830679557159999971e-01 1.062909156099999947e-01 -2.630433494200000166e-01 -4.613840580420000004e-01 4.898828913109999905e-01 4.643453902800000199e-02 -5.622236322720000068e-01 -8.099278885800000050e-02 -1.809042230199999976e-02 1.050639345230000021e-01 8.881857163900000462e-02 -1.165678257990000050e-01 1.926390446400000067e-01 3.104985032929999944e-01 -2.627189429700000148e-02 1.568173293629999965e-01 2.888188208910000276e-01 3.235882150789999856e-01 -3.329062252589999882e-01 9.608823482099999869e-02 2.425533868689999928e-01 -4.335496313530000090e-01 1.473550620319999949e-01 3.329412194920000068e-01 -2.329878572309999896e-01 -6.204492752229999741e-01 -3.036223991359999763e-01 -1.154944724519999938e-01 -2.666027954840000103e-01 -1.729632441460000059e-01 2.609643879670000000e-01 -4.377178914350000061e-01 -9.583822241999999381e-02 -8.461342855200000568e-02 1.797038868999999983e-01 2.651939637519999948e-01 5.811631294650000390e-01 5.898044031699999773e-02 -1.512409482719999920e-01 4.303513298070000270e-01 3.777574969599999943e-01 3.621833656990000039e-01 -1.572988076559999893e-01 -2.225074370529999956e-01 -3.909399868800000205e-02 6.813198388610000045e-01 -2.572631382800000255e-01
-1.577816691750000000e-01 6.329782731600000489e-02 -4.037838954560000193e-01 -2.135519480999999997e-01 2.163805346169999921e-01 -3.613994245239999792e-01 8.757971013049999920e-01 -4.480380512189999775e-01 2.691577968000000154e-01 -2.066963716690000119e-01 1.268224114442999984e+00 -3.590738285460000068e-01 4.117624765540000009e-01 -7.199512502810000436e-01 4.298594105590000103e-01 -3.630402436910000197e-01 1.349076960380000134e-01 -1.718104135519999964e-01 4.851532992600000177e-02 1.169714700360000026e-01 -2.742866227640000099e-01 -2.601250237850000202e-01 -3.937630151729999972e-01 6.737120769529999498e-01 -3.403429527549999833e-01 -1.199474112470999998e+00 -2.298617114070000134e-01 -4.288801321530000266e-01 -4.047805842480000083e-01 -1.429310650850000031e-01 -3.756340357510000172e-01 4.884506578889999950e-01 5.263889510179999842e-01 3.179122396790000082e-01 1.345803779034999925e+00 -3.283234237600000244e-02 -2.174231624849999878e-01 3.513854800699999781e-01 3.074869622599999894e-02 6.694675514560000096e-01 1.193400529300000068e+00 3.019238798980000138e-01 7.352154941820000511e-01 1.289773777919999975e-01 -1.176531800453999965e+00 -8.817193952299999526e-02 -9.081637246779999950e-01 1.074208821750999965e+00 2.035078110109999894e-01 -3.620492829479999841e-01 -3.039672953509999775e-01 -4.375345428640000089e-01 1.473667688889999938e-01 -2.977376622740000034e-01 2.945318638000000207e-03 -4.321129597289999902e-01 5.176276980999999604e-03 -2.997563340689999856e-01 -1.753722134540000033e-01 6.812840132000000035e-03 6.783722049310000335e-01 -3.024578167090000158e-01 -7.427150199399999708e-02 4.669510213300000212e-02 1.123038995524999972e+00 3.173190653949999884e-01 -3.435817878169999950e-01 -3.865627122399999949e-01 2.810680049989999763e-01 5.608917127639999611e-01 -2.148418294149999908e-01 6.445508240899999741e-02 -2.037506793999999989e-03 2.676329077869999962e-01 9.826734519900000298e-02 -1.823028863970000135e-01 -7.589246376310000430e-01 1.057621069030000027e-01 -1.090250126779999940e-01 -5.015473388690000478e-01 7.940416395100000080e-02 -3.909346688779999912e-01 -4.663717653100000193e-01 5.306303912600000144e-02 -2.946018151100000121e-02 1.417106677280000060e-01 9.175437096509999613e-01 7.476668453800000558e-02 9.453043302100000433e-02 1.790602563500000022e-01 2.326308016280000113e-01 3.155243467639999855e-01 1.847805984889999975e-01 1.384277939449999884e-01 -5.580160884470000138e-01 1.157902510299999993e-01 1.607799177939999991e-01 -6.636392639349999456e-01 -6.161012114849999666e-01 -4.499583951689999917e-01 5.794908820780000358e-01 -4.384082084709999827e-01 -3.194001082210000120e-01 -1.343793493800000127e-01 8.413848540399999909e-02 -2.188212707899999873e-02 -2.402612660529999944e-01 3.663230562370000110e-01 9.110737973099999887e-02 3.378214057860000064e-01 -9.566740065899999312e-02 -2.715758848979999973e-01 5.812596092849999785e-01 -9.631582722820000164e-01 5.120928766219999817e-01 1.796889811759999900e-01 -1.483223724059999915e-01 -2.517908813749999974e-01 1.948427976140000017e-01 -7.481888637299999312e-02
-2.444334924400000109e-01 1.672440908299999834e-02 -3.849401756170000022e-01 -3.074214973600000039e-02 4.146044908620000191e-01 -2.712933314600000090e-01 9.543138354260000122e-01 -3.633867686439999911e-01 3.544748353680000075e-01 -3.598316495980000140e-01 1.224398188606999893e+00 -3.687667519460000043e-01 3.242156858129999764e-01 -8.172916495580000440e-01 4.091655103649999847e-01 -1.882246466420000042e-01 1.841468497479999966e-01 -2.225941341219999925e-01 1.711822921120000063e-01 7.796499515400000246e-02 -3.178904516380000045e-01 -3.953402241169999831e-01 -4.296331135359999776e-01 7.551703179709999825e-01 -1.494021428510000082e-01 -9.176595746429999645e-01 -4.369995132830000184e-01 -3.196691492620000186e-01 1.309717029730000093e-01 1.215651267620000003e-01 -2.321833489000000028e-01 3.402317631480000215e-01 8.831255363950000215e-01 2.252073002190000117e-01 2.486866609700000008e-01 -3.869551121509999803e-01 -4.122294201669999825e-01 9.781109624599999830e-02 3.553067148069999903e-01 5.341521835339999580e-01 1.007390217885000050e+00 9.091443817000000038e-03 6.241940078690000338e-01 3.478658512539999914e-01 -1.146006773080000096e+00 -1.040955380559999977e-01 -8.623355300859999462e-01 1.105473117629000024e+00 5.154600846069999909e-01 -2.477442087399999923e-02 -2.869833207349999915e-01 -5.561245516989999915e-01 1.406459366059999994e-01 -3.647427873290000067e-01 8.700052190399999719e-02 -1.145386704380000065e-01 -1.236239425579999940e-01 -3.970680823289999828e-01 -1.802438358919999928e-01 -2.617038649519999871e-01 5.873449762810000196e-01 -3.032573626519999843e-01 2.489167359280000102e-01 2.097876320819999918e-01 6.365507775769999599e-01 2.222950028519999899e-01 -2.711339502590000006e-01 -6.904155885300000683e-02 1.883102637740000085e-01 4.882916538959999886e-01 -2.900303845199999828e-02 -1.389573946850000130e-01 1.438414103790000009e-01 -4.724843749789999769e-01 5.603163424600000192e-02 -2.108717284100000006e-02 -6.526079259210000316e-01 2.222006756540000072e-01 -2.369625189579999958e-01 -1.550300819909999905e-01 2.773903342890000068e-01 -5.079285393910000224e-01 5.927330494400000205e-02 5.338174819799999804e-02 8.726617740900000086e-02 1.422408986910000117e-01 5.492323374790000212e-01 -1.239934167369999979e-01 2.779745295999999817e-03 4.845560613600000122e-02 8.883649895700000687e-02 6.787225852210000410e-01 6.490333492800000326e-02 1.071024075419999971e-01 -2.837137146979999969e-01 2.587372769949999873e-01 2.349114535029999951e-01 -7.134329307179999580e-01 -3.123739240649999749e-01 -2.553600981149999893e-01 4.614118450490000134e-01 -2.886258847500000058e-01 -2.994557332880000144e-01 -4.088309915750000245e-01 1.816914645730000055e-01 1.366059551659999927e-01 -2.272135090109999866e-01 3.154752360099999930e-01 -8.780365848500000514e-02 -2.103246928700000171e-02 -2.272047122259999996e-01 -1.348641754590000075e-01 5.718734626089999606e-01 -1.322090015796000051e+00 1.490251961429999994e-01 4.348708840439999834e-01 6.175974089100000342e-02 -3.408056135120000052e-01 -1.736541441599999958e-01 1.195980953219999976e-01
-3.233891062099999991e-01 1.086461071289999969e-01 -3.441137533129999815e-01 1.628840774829999893e-01 4.970354285229999780e-01 -3.504392570009999819e-01 9.997096600620000162e-01 -1.487787513970000031e-01 3.965819950919999837e-01 -6.250156649279999810e-01 9.426573504299999851e-01 -2.352789703250000031e-01 5.454820423000000112e-02 -7.280667756269999513e-01 3.372992858709999986e-01 1.421413575699999876e-01 1.038342255649999935e-01 -1.407268394719999871e-01 4.839320928099999919e-01 1.169718370950000030e-01 -2.826908379029999807e-01 -4.529753324329999775e-01 -4.435303969769999743e-01 5.985140624970000101e-01 5.246193138799999656e-02 -2.587282818789999883e-01 -5.230303968070000309e-01 -8.005606552100000273e-02 7.991374145640000037e-01 3.154492579300000044e-01 1.733494231699999888e-01 -1.999911722109999901e-01 7.165022888469999574e-01 3.301144981299999892e-02 -7.861733336020000351e-01 -4.098467024920000035e-01 -5.988085221119999746e-01 -2.473334938499999885e-02 6.711101510420000027e-01 7.108056383800000211e-02 2.867608358399999918e-02 -3.156886486850000173e-01 7.245395243999999679e-02 4.123001189700000180e-01 -3.790742835120000098e-01 -2.093357057899999929e-01 -1.091758659620000044e-01 7.328792250399999986e-02 6.367449448649999955e-01 3.380932516760000173e-01 -4.506171505499999980e-02 -7.896788968399999498e-02 6.594910933500000572e-02 -2.577886022779999897e-01 8.773707940300000396e-02 1.319388954110000123e-01 -1.456040264429999953e-01 -4.199747428289999918e-01 -1.883351374670000078e-01 -4.303418025929999779e-01 1.208801336110000013e-01 -4.021790072099999669e-02 5.534317726919999458e-01 2.356265786950000052e-01 -7.705809006439999775e-01 -3.050803755699999995e-02 -5.370959301699999855e-02 2.397174403610000115e-01 -1.338340824010000041e-01 1.346984764240000132e-01 2.305607169780000132e-01 -3.277729759590000125e-01 2.168452477059999994e-01 -8.610063430590000344e-01 1.705009646999999968e-03 1.370075094869999954e-01 -2.624079341450000213e-01 5.046496537719999953e-01 -4.160149225750000013e-01 2.430406928970000047e-01 4.157028677080000234e-01 -3.372125635909999919e-01 5.930522850830000081e-01 5.139479805000000262e-02 1.335823963389999869e-01 1.521266764929999904e-01 -4.873282688560000020e-01 -2.997903438360000061e-01 -1.312354387469999994e-01 -7.222324717799999405e-02 -3.905704899100000127e-02 3.246059091929999751e-01 -2.237434042279999868e-01 1.260522240649999959e-01 3.072095266040000272e-01 4.426473724059999948e-01 2.766220227189999936e-01 -3.234837194410000172e-01 1.243149746479999956e-01 1.499346809700000116e-01 -5.254086113070000064e-01 1.594085867670000101e-01 -1.019634021009999947e-01 -4.804999826119999984e-01 -2.303495169829999911e-01 1.490972811569999945e-01 -7.211985561000000544e-02 6.344408023700000288e-02 -2.522911415340000074e-01 -2.083790468010000008e-01 -3.054539653560000012e-01 1.870862669910000053e-01 4.803935225489999739e-01 -1.866754129619999925e-01 -2.778727912419999835e-01 4.849674540900000275e-01 2.696028614729999995e-01 -2.710527188410000177e-01 -3.806124893900000167e-02 1.625278061759999892e-01
-3.492660315080000077e-01 2.164511939990000078e-01 -3.816937669259999888e-01 2.817394177440000202e-01 4.821249512169999973e-01 -4.463806719960000113e-01 9.439226256980000063e-01 4.581437986800000056e-02 2.945774642599999771e-01 -8.038255349959999574e-01 6.125147493329999859e-01 -1.351420909500000017e-02 -1.650883174349999927e-01 -5.614790781420000432e-01 3.271826151100000191e-01 3.657839176870000264e-01 -2.550930864999999877e-03 -5.585752045799999982e-02 7.018396462889999743e-01 1.422530153899999872e-01 -1.108863208440000053e-01 -4.114147237340000096e-01 -3.797093581670000217e-01 3.663748422870000132e-01 9.552916094600000241e-02 3.433180570309999902e-01 -6.244054225299999761e-01 2.787614055140000269e-01 6.345353813399999821e-01 3.860986323910000073e-01 8.174540404660000092e-01 -6.773147886939999696e-01 3.873123146699999908e-02 -1.358619869640000088e-01 -8.850980899670000124e-01 6.679818544099999644e-02 -6.380501254299999481e-01 2.450687200249999920e-01 2.611269162709999869e-01 -4.394236544310000103e-01 -1.038203733445999921e+00 4.097563815400000198e-02 -5.514898053300000269e-01 1.809319149380000102e-01 4.559705064360000115e-01 -2.041391217730000041e-01 6.402527578009999942e-01 -6.429676558429999744e-01 5.951731454359999729e-01 5.360477586120000471e-01 -1.050466688300000055e-02 3.007120084830000040e-01 -3.370934187300000245e-02 -6.975957619799999510e-02 3.341106859700000015e-02 -1.599453815800000109e-02 -4.967166699000000185e-02 -3.493411705819999824e-01 -1.890807243640000024e-01 1.240587111770000001e-01 -2.637280060039999818e-01 3.137054115780000263e-01 6.695416064450000482e-01 1.662777180449999948e-01 -1.192278747682000040e+00 -3.227267497960000231e-01 1.749484771969999908e-01 3.870666717210000107e-01 4.070195539899999770e-02 -3.378887269220000045e-01 3.120377282599999802e-01 -3.030995111179999868e-01 1.414404349679999895e-01 -3.380923045109999747e-01 -4.132522789299999944e-02 1.512418577059999880e-01 1.086388460950000051e-01 3.544931088900000332e-02 -4.428260308210000273e-01 4.939534834970000232e-01 3.566815857369999843e-01 -9.909331999999999863e-03 1.253273341449999967e-01 -1.490377579000000050e-02 8.663772332600000459e-02 1.079444323899999975e-01 -9.566491234209999472e-01 5.244823906499999910e-02 -2.929277286029999816e-01 -1.174952468869999989e-01 -2.212354380800000131e-01 -3.995037055389999980e-01 -4.249318169130000267e-01 1.324348927579999946e-01 7.785226298790000055e-01 5.116046069599999857e-02 -1.046516081289999983e-01 2.755619851089999850e-01 3.484515582480000040e-01 5.763421678579999652e-01 -9.747418061170000092e-01 5.194400026069999621e-01 1.253036243439999975e-01 -3.963096952929999750e-01 -3.304746735199999841e-01 -5.535342263100000160e-02 8.208533896799999341e-02 -2.107032867580000135e-01 -2.881671615349999938e-01 -1.802446345089999957e-01 -1.985504527170000033e-01 4.268462580360000147e-01 9.981929664199999663e-02 6.588315285479999783e-01 -5.281509210360000317e-01 2.510826075729999940e-01 2.915220160040000175e-01 -1.484367108209999897e-01 1.421805605189999933e-01 -7.173424991000000236e-03