-2.343202933013995848e-01 -2.432990411548062948e+00 1.727073200013048426e+00 -2.432990411548062948e+00 -6.317188485448965274e+00 -2.476028645166208353e+00 1.727073200013048426e+00 -2.476028645166208353e+00 1.659240805134157393e+00
1.176834063815423104e+00 -2.401116960958542546e+00 1.692054100644944992e+00 -2.401116960958542546e+00 -3.880856074070266892e+00 -2.637624455447455052e+00 1.692054100644944992e+00 -2.637624455447455052e+00 4.052088764788168262e+00
2.936368973585453013e+00 -2.342434979860052557e+00 1.737444007975710525e+00 -2.342434979860052557e+00 -1.181659736501161628e+00 -2.664024440251385517e+00 1.737444007975710525e+00 -2.664024440251385517e+00 5.545425769030698504e+00
2.667466140936558538e+00 -2.214179240667566440e+00 1.775440480315475078e+00 -2.214179240667566440e+00 -9.719280634462751367e-02 -2.628416418911465158e+00 1.775440480315475078e+00 -2.628416418911465158e+00 4.338973298811790613e+00
6.547155822572318096e-01 -2.191579236806792341e+00 1.781504002351976812e+00 -2.191579236806792341e+00 -9.708085871433873582e-01 -2.954758813308229648e+00 1.781504002351976812e+00 -2.954758813308229648e+00 1.293545715967221454e+00
-1.569421676980135238e+00 -2.262827694159766256e+00 1.811833986132032281e+00 -2.262827694159766256e+00 -2.374206806940617032e+00 -3.092475026912348657e+00 1.811833986132032281e+00 -3.092475026912348657e+00 -8.935519543620686900e-01
-3.502173768073484794e+00 -2.055672008657081662e+00 1.685643278460300154e+00 -2.055672008657081662e+00 -4.608993725150664744e+00 -2.977894246068485185e+00 1.685643278460300154e+00 -2.977894246068485185e+00 -1.742815950200436781e+00
-4.115591354379207978e+00 -1.690040466067173286e+00 1.416027520946866902e+00 -1.690040466067173286e+00 -5.540718625130827135e+00 -2.871748228979970730e+00 1.416027520946866902e+00 -2.871748228979970730e+00 -1.469210469950750442e+00
-2.656686185698548197e+00 -1.517836823717918060e+00 1.447994827496622117e+00 -1.517836823717918060e+00 -4.692358123629273514e+00 -2.625830654416988708e+00 1.447994827496622117e+00 -2.625830654416988708e+00 5.458283151432489211e-01
-5.286600210285169466e-01 -1.537303420331394888e+00 1.682433045262104132e+00 -1.537303420331394888e+00 -3.176249564032658679e+00 -2.388382589958821356e+00 1.682433045262104132e+00 -2.388382589958821356e+00 2.192753324911163038e+00
3.974287400058570952e-01 -1.708990459503541448e+00 1.585284465166753476e+00 -1.708990459503541448e+00 -1.258599761605636580e+00 -2.430932270624180269e+00 1.585284465166753476e+00 -2.430932270624180269e+00 8.476391539087007043e-01
3.508491830622777474e-01 -1.773886244459357275e+00 1.428390383637341721e+00 -1.773886244459357275e+00 -2.895117143894572753e-01 -2.294690901718106524e+00 1.428390383637341721e+00 -2.294690901718106524e+00 -1.553154112012594457e+00
-1.302040998285374993e-02 -1.753510758632396804e+00 1.513581379456143017e+00 -1.753510758632396804e+00 8.770491374525898332e-01 -2.101325243413443733e+00 1.513581379456143017e+00 -2.101325243413443733e+00 -2.075568057500816188e+00
-2.084759198357696505e-02 -1.805443056697972670e+00 1.741329125094659647e+00 -1.805443056697972670e+00 -7.182296004706255343e-02 -2.167264838337638277e+00 1.741329125094659647e+00 -2.167264838337638277e+00 -2.492733465723025177e-01
-7.168736018097406071e-02 -2.331943600453738163e+00 2.085301790830954793e+00 -2.331943600453738163e+00 -4.361221209402915910e+00 -2.537975695757163308e+00 2.085301790830954793e+00 -2.537975695757163308e+00 1.744564378353684830e+00
-1.481126175458344685e+00 -2.961936477158254366e+00 2.347227627059231825e+00 -2.961936477158254366e+00 -6.809018618995429151e+00 -2.842399941507651295e+00 2.347227627059231825e+00 -2.842399941507651295e+00 3.155412040909116866e-01
-2.453878009234756075e+00 -2.989841968712039222e+00 2.057092714881721296e+00 -2.989841968712039222e+00 -6.169504075106246432e+00 -2.947695267674344866e+00 2.057092714881721296e+00 -2.947695267674344866e+00 -1.442544530883600684e+00
-1.315911923064629452e+00 -2.576484998044314523e+00 1.479157084963231839e+00 -2.576484998044314523e+00 -2.551469394855295114e+00 -3.044038213126948111e+00 1.479157084963231839e+00 -3.044038213126948111e+00 -1.046007315817323979e+00
7.461627923908650262e-01 -2.204975576846351704e+00 1.223410641126638110e+00 -2.204975576846351704e+00 2.169206063165223242e+00 -3.168794913170352334e+00 1.223410641126638110e+00 -3.168794913170352334e+00 2.922704771414079139e-01
4.541171879534982025e+00 -1.942122532326606033e+00 1.331256354963906485e+00 -1.942122532326606033e+00 3.077607888581952889e+00 -2.973375347729929175e+00 1.331256354963906485e+00 -2.973375347729929175e+00 2.421273866823895116e+00
1.040896701476075314e+01 -1.879934407436633093e+00 1.821764233497392693e+00 -1.879934407436633093e+00 -1.455797822815528608e+00 -2.589074038601851591e+00 1.821764233497392693e+00 -2.589074038601851591e+00 6.988842239773808807e+00
1.195961073023686971e+01 -2.269402730073517116e+00 2.396568198082371204e+00 -2.269402730073517116e+00 -4.037219034933956507e+00 -2.130169838295303819e+00 2.396568198082371204e+00 -2.130169838295303819e+00 9.558590841864990750e+00
2.902787671962940408e+00 -2.692464480092732870e+00 2.157280994253224726e+00 -2.692464480092732870e+00 -8.612030794934875999e+00 -1.804276751697667214e+00 2.157280994253224726e+00 -1.804276751697667214e+00 3.212964549549738535e+00
-8.482305734993811797e+00 -2.622694749299141925e+00 1.742286267188583038e+00 -2.622694749299141925e+00 -1.489198094870283384e+01 -1.741271526730373775e+00 1.742286267188583038e+00 -1.741271526730373775e+00 -7.034192189470306111e+00
-1.404108981048555016e+01 -2.592289938529344528e+00 1.273198756461687786e+00 -2.592289938529344528e+00 -1.801355059554847671e+01 -2.252923992053813329e+00 1.273198756461687786e+00 -2.252923992053813329e+00 -1.263628336723751566e+01
-1.359811716580963292e+01 -2.850688403922692959e+00 1.102347312933467993e+00 -2.850688403922692959e+00 -1.768604711184759992e+01 -2.771059449437712541e+00 1.102347312933467993e+00 -2.771059449437712541e+00 -1.193547099779122789e+01
-7.304634402295415718e+00 -3.270357997231674752e+00 1.726209043268491339e+00 -3.270357997231674752e+00 -1.225499736080283952e+01 -2.865401089992056338e+00 1.726209043268491339e+00 -2.865401089992056338e+00 -5.592174267004868859e+00
-1.503710070621624706e-01 -3.568308439185167824e+00 2.490320974404836019e+00 -3.568308439185167824e+00 -1.170766604247671872e+00 -2.917189023284211924e+00 2.490320974404836019e+00 -2.917189023284211924e+00 2.837347255881779162e+00
2.651245890787701232e+00 -2.997406874403557353e+00 2.657020199149498829e+00 -2.997406874403557353e+00 3.559832191451701267e+00 -2.842136580699701209e+00 2.657020199149498829e+00 -2.842136580699701209e+00 6.756244389001495598e+00
1.292132377833992818e+00 -2.500829280466637883e+00 2.513840459051351672e+00 -2.500829280466637883e+00 1.113715263865823868e+00 -2.779652277184132103e+00 2.513840459051351672e+00 -2.779652277184132103e+00 6.183276749872627320e+00
1.627800275722765422e+00 -2.621976305643929805e+00 2.950654260488573044e+00 -2.621976305643929805e+00 -9.639541301537304374e-01 -2.084104012987552768e+00 2.950654260488573044e+00 -2.084104012987552768e+00 6.121537569729584405e+00
5.135522965951773600e+00 -3.057316067809437321e+00 3.765073992703331651e+00 -3.057316067809437321e+00 -1.660220463387760859e+00 -1.818371304544944556e+00 3.765073992703331651e+00 -1.818371304544944556e+00 8.249191902064328730e+00
9.336345772475169724e+00 -3.127195084282351711e+00 3.953558372589327519e+00 -3.127195084282351711e+00 -2.773135901750289012e+00 -2.171578325625381112e+00 3.953558372589327519e+00 -2.171578325625381112e+00 1.046811637832222530e+01
6.986805559763011431e+00 -2.799247464643865868e+00 3.070041772214626707e+00 -2.799247464643865868e+00 -4.398722898245470248e+00 -2.676705037994681735e+00 3.070041772214626707e+00 -2.676705037994681735e+00 1.008618558421285449e+01
1.772227226425952651e+00 -2.835167814477532744e+00 1.703224907353543705e+00 -2.835167814477532744e+00 -7.381388587435417925e+00 -2.801069726636001622e+00 1.703224907353543705e+00 -2.801069726636001622e+00 6.132926763637501999e+00
-3.060059114564789517e+00 -2.556702335902268697e+00 1.134772743482035606e+00 -2.556702335902268697e+00 -8.719752771996894580e+00 -2.696217166387952613e+00 1.134772743482035606e+00 -2.696217166387952613e+00 -3.289594342663424431e-01
-5.310261724380611170e+00 -1.967040429436052840e+00 8.987035066468300748e-01 -1.967040429436052840e+00 -6.603408177746733720e+00 -2.580743248009835789e+00 8.987035066468300748e-01 -2.580743248009835789e+00 -4.549559699769655019e+00
-5.548600979072904948e+00 -1.880582367347192863e+00 7.345093837772339596e-01 -1.880582367347192863e+00 -2.161395556788526573e+00 -2.391952242655130956e+00 7.345093837772339596e-01 -2.391952242655130956e+00 -5.753041886466369270e+00
-7.265424973943101605e+00 -2.072154770564756721e+00 9.931146347007981934e-01 -2.072154770564756721e+00 -4.494523244071306323e+00 -2.640013433202792026e+00 9.931146347007981934e-01 -2.640013433202792026e+00 -6.154750359934657133e+00
-8.565967104992964209e+00 -2.373092721950667450e+00 1.454999409845699532e+00 -2.373092721950667450e+00 -9.088643200649228149e+00 -2.928301093671503708e+00 1.454999409845699532e+00 -2.928301093671503708e+00 -7.096036960674371841e+00
-8.117439646258626240e+00 -2.720765034348175071e+00 1.755630236656821719e+00 -2.720765034348175071e+00 -9.968265818228074338e+00 -2.872155824138533209e+00 1.755630236656821719e+00 -2.872155824138533209e+00 -6.748715564993237770e+00
-5.400917383779787251e+00 -2.878709092194780883e+00 1.861433013963174066e+00 -2.878709092194780883e+00 -7.824885786673583254e+00 -2.787017988140873204e+00 1.861433013963174066e+00 -2.787017988140873204e+00 -4.172804371965623815e+00
-4.603048718800286099e-01 -2.777391913993124906e+00 1.857869203553847326e+00 -2.777391913993124906e+00 -4.182973800773639006e+00 -2.942331798831425260e+00 1.857869203553847326e+00 -2.942331798831425260e+00 1.922071115665014707e-01
6.033212483387375258e+00 -2.578216440025960843e+00 1.903978129359510163e+00 -2.578216440025960843e+00 8.165415597253916635e-01 -3.025114435289225412e+00 1.903978129359510163e+00 -3.025114435289225412e+00 6.100918574483627843e+00
1.061497795054054905e+01 -2.548334073067364702e+00 2.093601174506509288e+00 -2.548334073067364702e+00 5.044976458832130639e+00 -2.789841395370257437e+00 2.093601174506509288e+00 -2.789841395370257437e+00 1.046504465132697703e+01
1.118974980709304390e+01 -2.624295824338271910e+00 2.079407664129878430e+00 -2.624295824338271910e+00 6.842365456166835891e+00 -2.470378611639441946e+00 2.079407664129878430e+00 -2.470378611639441946e+00 1.089409513977735600e+01
8.455976464314586494e+00 -2.657538524864689666e+00 1.739332819992580381e+00 -2.657538524864689666e+00 5.840084754490811214e+00 -2.129052368397176931e+00 1.739332819992580381e+00 -2.129052368397176931e+00 8.775001023477564388e+00
4.339940610241004748e+00 -2.710163596036398559e+00 1.324999134532325762e+00 -2.710163596036398559e+00 1.704968767196513024e+00 -1.832766147825810599e+00 1.324999134532325762e+00 -1.832766147825810599e+00 6.220966831472714453e+00
-5.467226275740419417e-02 -2.803912671984005733e+00 1.039840602681084247e+00 -2.803912671984005733e+00 -4.089640608981887304e+00 -1.761676398953762046e+00 1.039840602681084247e+00 -1.761676398953762046e+00 2.935833130629948773e+00
-3.359887698263136713e+00 -2.770162649942148558e+00 1.017108579072158792e+00 -2.770162649942148558e+00 -8.673252889344910344e+00 -1.924256847948969895e+00 1.017108579072158792e+00 -1.924256847948969895e+00 -3.156861760998732613e-01
-5.225709285849183594e+00 -2.647064562311355562e+00 1.189819122487690839e+00 -2.647064562311355562e+00 -1.079604081228592882e+01 -2.206724916060628594e+00 1.189819122487690839e+00 -2.206724916060628594e+00 -2.689337078158136052e+00
-5.599483851554230895e+00 -2.538687637890282733e+00 1.556427030674761181e+00 -2.538687637890282733e+00 -1.094713665764308885e+01 -2.409261564700664771e+00 1.556427030674761181e+00 -2.409261564700664771e+00 -3.982772745310445561e+00
-4.864155824714450738e+00 -2.412841753888661067e+00 1.875987378755500812e+00 -2.412841753888661067e+00 -1.063275056520738637e+01 -2.621947503724542994e+00 1.875987378755500812e+00 -2.621947503724542994e+00 -4.991025626658631253e+00
-3.810746943740665138e+00 -2.226608912804099116e+00 2.007815809777132809e+00 -2.226608912804099116e+00 -9.208810888115031901e+00 -2.755727659638315785e+00 2.007815809777132809e+00 -2.755727659638315785e+00 -4.119862748408182895e+00
-1.892805124286480511e+00 -1.940051321376982996e+00 1.998326637417713325e+00 -1.940051321376982996e+00 -6.654645074498477086e+00 -2.823075393587114679e+00 1.998326637417713325e+00 -2.823075393587114679e+00 -1.131300618685125770e+00
1.558772835767495701e+00 -1.668640988125437818e+00 1.866495732188358181e+00 -1.668640988125437818e+00 -3.673502222593386879e+00 -3.198583994245550510e+00 1.866495732188358181e+00 -3.198583994245550510e+00 1.798796994354042278e+00
5.988225528228614536e+00 -1.678759930734217809e+00 1.691021768907119416e+00 -1.678759930734217809e+00 8.960479064971887952e-01 -3.538817115052808493e+00 1.691021768907119416e+00 -3.538817115052808493e+00 4.758721165209711224e+00
8.616114498881520589e+00 -1.764924207482636342e+00 1.546956868406632157e+00 -1.764924207482636342e+00 4.365932524218461452e+00 -3.444429443014079606e+00 1.546956868406632157e+00 -3.444429443014079606e+00 6.693326305491811290e+00
7.414023866495282000e+00 -2.011797856936814899e+00 1.658941092117306670e+00 -2.011797856936814899e+00 3.606377515494247898e+00 -3.277013687932254449e+00 1.658941092117306670e+00 -3.277013687932254449e+00 6.068516649304028121e+00
3.601596398639450580e+00 -2.656424416042814318e+00 1.800040597700445000e+00 -2.656424416042814318e+00 -2.811628824668667703e-01 -3.119280662164656714e+00 1.800040597700445000e+00 -3.119280662164656714e+00 3.694217713191841224e+00
1.308537748811311907e+00 -3.408100941856803345e+00 1.640190390755431826e+00 -3.408100941856803345e+00 -3.132557207353160678e+00 -2.802771275378359572e+00 1.640190390755431826e+00 -2.802771275378359572e+00 2.338428696223363357e+00
7.321504276073825812e-01 -3.911021391502068845e+00 1.412518481375623747e+00 -3.911021391502068845e+00 -4.278880911424700173e+00 -2.456690005405864241e+00 1.412518481375623747e+00 -2.456690005405864241e+00 1.531904589271751327e+00
-2.869384522435089457e-01 -3.748382638030160585e+00 1.396153855019680368e+00 -3.748382638030160585e+00 -4.415030391347062988e+00 -2.219140118676589335e+00 1.396153855019680368e+00 -2.219140118676589335e+00 3.096395528121441143e-01
-1.620471434460183824e+00 -2.908622847291761904e+00 1.524787630103553226e+00 -2.908622847291761904e+00 -4.818783590493088909e+00 -2.014524961088671073e+00 1.524787630103553226e+00 -2.014524961088671073e+00 -1.146451402280545429e+00
-2.647223900852809120e+00 -1.968861112523494272e+00 1.552521913687490152e+00 -1.968861112523494272e+00 -5.623723753965404804e+00 -1.640105128197467454e+00 1.552521913687490152e+00 -1.640105128197467454e+00 -3.216757879774925666e+00
-3.479976286097374860e+00 -1.426362911257004873e+00 1.541708792650284376e+00 -1.426362911257004873e+00 -5.318802355953345717e+00 -1.723650928677386673e+00 1.541708792650284376e+00 -1.723650928677386673e+00 -4.152827418567434314e+00
-3.958683097700213427e+00 -1.555237110610199647e+00 1.590591854292991103e+00 -1.555237110610199647e+00 -4.130295066448276486e+00 -2.303124183739992503e+00 1.590591854292991103e+00 -2.303124183739992503e+00 -2.950756202186087140e+00
-2.440470888949965556e+00 -1.869117022759344104e+00 1.355500274177860121e+00 -1.869117022759344104e+00 -2.613219685812492088e+00 -2.839455510482610912e+00 1.355500274177860121e+00 -2.839455510482610912e+00 1.206615765541185770e+00
-7.683002875496631745e-01 -1.999752440524639630e+00 1.271300100363002894e+00 -1.999752440524639630e+00 -1.018653921899328241e+00 -3.443568689244616898e+00 1.271300100363002894e+00 -3.443568689244616898e+00 3.936475469480428035e+00
-9.002548325376743543e-01 -2.060152701200717917e+00 1.688743825269078291e+00 -2.060152701200717917e+00 -2.731415363060524903e+00 -4.126278339036554499e+00 1.688743825269078291e+00 -4.126278339036554499e+00 2.703967630347287265e+00
-2.923085797664830565e+00 -1.751209450887886820e+00 1.790740839605142520e+00 -1.751209450887886820e+00 -7.295061371051215104e+00 -3.963756857061989436e+00 1.790740839605142520e+00 -3.963756857061989436e+00 -1.666496437665339059e+00
-3.626714401593333914e+00 -1.444002196601106514e+00 1.605354296355811172e+00 -1.444002196601106514e+00 -9.186557723261032038e+00 -2.928177285269639718e+00 1.605354296355811172e+00 -2.928177285269639718e+00 -2.912631783775516681e+00
4.666049412885431846e-01 -1.350431881151247682e+00 1.375847336741236493e+00 -1.350431881151247682e+00 -7.502575917198726962e+00 -2.314375343890943793e+00 1.375847336741236493e+00 -2.314375343890943793e+00 1.580184400619547569e+00
5.753780429693090781e+00 -1.288795735031421197e+00 1.618134278632715750e+00 -1.288795735031421197e+00 -3.913484614484473934e+00 -2.600269918694660731e+00 1.618134278632715750e+00 -2.600269918694660731e+00 6.924746452429355159e+00
8.222439099356444459e+00 -1.307591659070163725e+00 1.956496484096426069e+00 -1.307591659070163725e+00 5.661712562652920777e-01 -2.842370933420192536e+00 1.956496484096426069e+00 -2.842370933420192536e+00 6.905510049678500017e+00
5.636828831188799960e+00 -1.635024671186969147e+00 1.614667561442586274e+00 -1.635024671186969147e+00 -1.187310752166251149e+00 -3.505915154171299175e+00 1.614667561442586274e+00 -3.505915154171299175e+00 4.158414169230345792e+00
2.431014434369399568e-01 -1.762785733805185773e+00 1.380531834705228889e+00 -1.762785733805185773e+00 -8.899965161937146263e+00 -3.386058660438606704e+00 1.380531834705228889e+00 -3.386058660438606704e+00 1.008914144244313471e+00
-2.153931420215065451e+00 -2.068710578564940672e+00 1.792094855278461463e+00 -2.068710578564940672e+00 -1.296745545844953007e+01 -3.001272968306461397e+00 1.792094855278461463e+00 -3.001272968306461397e+00 -6.181175476411584491e-01
-2.217161560434672385e+00 -2.661785819989311630e+00 1.962972695298663250e+00 -2.661785819989311630e+00 -1.198487245751465302e+01 -2.819670369426110046e+00 1.962972695298663250e+00 -2.819670369426110046e+00 1.496201983373465438e+00
-6.861932336482517991e-01 -3.422349127047725759e+00 1.498809610753366606e+00 -3.422349127047725759e+00 -8.037717404692550360e+00 -2.665908393851401215e+00 1.498809610753366606e+00 -2.665908393851401215e+00 9.066054067151804730e-02
-3.676056377079176540e-01 -3.889569372006542292e+00 1.865368700547589631e+00 -3.889569372006542292e+00 -3.701902351091673093e+00 -2.761327518743133425e+00 1.865368700547589631e+00 -2.761327518743133425e+00 -1.445307547255539671e+00
9.883095396009027381e-03 -3.651394969848394290e+00 2.047423497965609407e+00 -3.651394969848394290e+00 -4.035482329858523509e-01 -3.687729099621381845e+00 2.047423497965609407e+00 -3.687729099621381845e+00 -2.223369155737777714e+00
-1.942666910422746973e+00 -3.301806051479077908e+00 2.007736105139104943e+00 -3.301806051479077908e+00 -8.552365395469871956e-01 -3.685668951828706241e+00 2.007736105139104943e+00 -3.685668951828706241e+00 -2.450086450637831259e+00
-5.558813900238847694e+00 -3.070264851881223667e+00 2.048354672654736142e+00 -3.070264851881223667e+00 -3.909579330906683747e+00 -2.049984770175703908e+00 2.048354672654736142e+00 -2.049984770175703908e+00 -2.506622815142622862e+00
-7.809353005935435021e+00 -3.053693422444277328e+00 1.737065637380809324e+00 -3.053693422444277328e+00 -6.577423300899852165e+00 -1.371742824872302480e+00 1.737065637380809324e+00 -1.371742824872302480e+00 -2.617121072875359111e+00
-8.575441130012693591e+00 -3.440141034046094060e+00 1.402971636869158489e+00 -3.440141034046094060e+00 -6.668280347212126813e+00 -1.245803843397728317e+00 1.402971636869158489e+00 -1.245803843397728317e+00 -9.139596830844979314e-01
-8.831983826141224014e+00 -3.564384705368378814e+00 1.168668294088418991e+00 -3.564384705368378814e+00 -4.990775301562861088e+00 -1.315998400163441939e+00 1.168668294088418991e+00 -1.315998400163441939e+00 7.612051048570497302e-01
-7.063538286161048063e+00 -3.182789897767143827e+00 9.146061772192579653e-01 -3.182789897767143827e+00 -2.202183855871190588e+00 -1.429767015281210973e+00 9.146061772192579653e-01 -1.429767015281210973e+00 2.229117851434156528e+00
-4.095255239954984638e+00 -2.521152471985767640e+00 4.900157096275394863e-01 -2.521152471985767640e+00 -5.377489024105450710e-01 -1.510563105515421833e+00 4.900157096275394863e-01 -1.510563105515421833e+00 3.071322954719728937e+00
-3.122235699782222734e-02 -2.151467012235637633e+00 3.192990258780366575e-01 -2.151467012235637633e+00 2.478987157189945223e-01 -2.024683566920736588e+00 3.192990258780366575e-01 -2.024683566920736588e+00 3.329716598157257845e+00
4.917317177697395181e+00 -2.114488107061771149e+00 6.247595665064941128e-01 -2.114488107061771149e+00 1.915354176992306590e+00 -2.867650088975317146e+00 6.247595665064941128e-01 -2.867650088975317146e+00 4.903453875722220801e+00
7.790685383517895524e+00 -2.080558116813784775e+00 1.156269312357041334e+00 -2.080558116813784775e+00 2.662715728340623755e+00 -3.503454943506346453e+00 1.156269312357041334e+00 -3.503454943506346453e+00 6.961852677672021095e+00
7.405906878096251589e+00 -1.941201295195014165e+00 1.613989037088222611e+00 -1.941201295195014165e+00 1.688431594835591021e+00 -3.389501809010977418e+00 1.613989037088222611e+00 -3.389501809010977418e+00 7.292631153486107465e+00
3.384106878153041009e+00 -1.924533813335323806e+00 1.767586891090288992e+00 -1.924533813335323806e+00 -7.658005410443995409e-01 -2.920965555556391813e+00 1.767586891090288992e+00 -2.920965555556391813e+00 7.306458717404117564e+00
-1.105049890560961146e+00 -2.090009464277634343e+00 1.800539092299996868e+00 -2.090009464277634343e+00 -4.048995336928771671e+00 -2.691742187474263748e+00 1.800539092299996868e+00 -2.691742187474263748e+00 4.547646914191874501e+00
-4.388643123109586597e+00 -2.305778825112010377e+00 1.662941516668408726e+00 -2.305778825112010377e+00 -7.696792508462779736e+00 -2.636433503074878448e+00 1.662941516668408726e+00 -2.636433503074878448e+00 2.263487609194782257e-01
-5.583947352872149494e+00 -2.564534988323785125e+00 1.583745368993936919e+00 -2.564534988323785125e+00 -1.087756516565253229e+01 -2.650846653320646062e+00 1.583745368993936919e+00 -2.650846653320646062e+00 -2.989303240858510957e+00
-5.621763816960092974e+00 -2.822652937665643069e+00 1.634653654126218880e+00 -2.822652937665643069e+00 -1.089165368725765859e+01 -2.837284659587868241e+00 1.634653654126218880e+00 -2.837284659587868241e+00 -3.999364237567444746e+00
-4.238140372855789373e+00 -2.991873686178494918e+00 1.630830994519668398e+00 -2.991873686178494918e+00 -7.327838613429189962e+00 -3.017300392093424932e+00 1.630830994519668398e+00 -3.017300392093424932e+00 -2.633083142901274876e+00
-1.394071075386216663e+00 -2.920724834512629986e+00 1.339133268666649501e+00 -2.920724834512629986e+00 -1.652694791694633736e+00 -3.103967617303258208e+00 1.339133268666649501e+00 -3.103967617303258208e+00 -6.491071707899818133e-01
8.762540198903532307e-01 -2.853257900264938751e+00 1.043905390319038728e+00 -2.853257900264938751e+00 2.523937623626287596e+00 -3.170955953571101382e+00 1.043905390319038728e+00 -3.170955953571101382e+00 1.018289668865350779e-02
2.929688155024765095e+00 -2.721570725009291980e+00 1.014499550628953140e+00 -2.721570725009291980e+00 2.149944882981962291e+00 -3.065270160845386727e+00 1.014499550628953140e+00 -3.065270160845386727e+00 -2.081608744148081003e-01
3.365756447906076421e+00 -2.286564457923266236e+00 1.249886817573457876e+00 -2.286564457923266236e+00 -5.375383312768188260e-01 -3.000562198676222536e+00 1.249886817573457876e+00 -3.000562198676222536e+00 -1.774474070364455980e-01
2.745553959716782622e+00 -1.753671032166482791e+00 1.433311938470631874e+00 -1.753671032166482791e+00 -1.884753486630063479e+00 -2.942898847671040485e+00 1.433311938470631874e+00 -2.942898847671040485e+00 8.495820680677698133e-01
1.662459375260685990e+00 -1.351437723537554536e+00 1.581978957532597319e+00 -1.351437723537554536e+00 -2.053235734215439923e+00 -2.923058792372605463e+00 1.581978957532597319e+00 -2.923058792372605463e+00 2.164359193159156813e+00
1.368937913577862542e+00 -1.192880198891624888e+00 1.711437837003477735e+00 -1.192880198891624888e+00 -1.694313571275173791e+00 -3.014905124936989811e+00 1.711437837003477735e+00 -3.014905124936989811e+00 2.178109072496004384e+00
2.145443434061318211e+00 -1.362602717504585836e+00 1.600639009839781135e+00 -1.362602717504585836e+00 -2.019354218796569622e+00 -2.989566518888213675e+00 1.600639009839781135e+00 -2.989566518888213675e+00 1.605356931717476732e+00
5.506011804728890624e+00 -1.752221545246647416e+00 1.421555896673635910e+00 -1.752221545246647416e+00 -2.162882441727493887e+00 -2.698268551409397809e+00 1.421555896673635910e+00 -2.698268551409397809e+00 1.235253402325910965e+00
7.603075847742776006e+00 -1.891381742441764935e+00 1.454124207315230954e+00 -1.891381742441764935e+00 -2.582721817425631450e+00 -2.322261294742268944e+00 1.454124207315230954e+00 -2.322261294742268944e+00 3.970633583232479613e-01
4.495250538188412470e+00 -1.656448117675480391e+00 1.810077923865628824e+00 -1.656448117675480391e+00 -4.098310639110715137e+00 -1.880740815562436108e+00 1.810077923865628824e+00 -1.880740815562436108e+00 -2.644540156741533865e-01
-2.574635846124813110e-01 -1.412756122889789134e+00 2.240013702549594310e+00 -1.412756122889789134e+00 -5.954312291875008434e+00 -1.493473655957427981e+00 2.240013702549594310e+00 -1.493473655957427981e+00 5.178463528252759129e-01
-3.348905048078139046e+00 -1.345823745199069332e+00 2.450488153444390971e+00 -1.345823745199069332e+00 -7.488599114870861939e+00 -1.253085398131219108e+00 2.450488153444390971e+00 -1.253085398131219108e+00 1.230969283723740704e+00
-3.541694581115699236e+00 -1.553127315669711406e+00 2.149726071369008729e+00 -1.553127315669711406e+00 -8.535177567333327886e+00 -1.364017725275489479e+00 2.149726071369008729e+00 -1.364017725275489479e+00 -2.742906721191766886e-02
-3.199756461319218204e+00 -2.051634794049517652e+00 1.484171832485992493e+00 -2.051634794049517652e+00 -8.212065915737284172e+00 -1.734722729268096453e+00 1.484171832485992493e+00 -1.734722729268096453e+00 -6.113406921503983238e-01
-2.817179711497103778e+00 -2.312433825223975781e+00 1.065926414798525013e+00 -2.312433825223975781e+00 -6.201052300760578007e+00 -1.861373776636179311e+00 1.065926414798525013e+00 -1.861373776636179311e+00 5.667474490140679277e-01
-2.442296770410988138e+00 -2.032331374430206949e+00 1.278464447846234586e+00 -2.032331374430206949e+00 -3.947444649256702576e+00 -1.837764912943359752e+00 1.278464447846234586e+00 -1.837764912943359752e+00 9.332117625374402037e-01
-7.701951818347385625e-01 -1.748794320999248919e+00 1.615041166375670745e+00 -1.748794320999248919e+00 -2.807558963541750607e+00 -1.922248232715333405e+00 1.615041166375670745e+00 -1.922248232715333405e+00 2.633063674310768931e+00
1.948854638201234390e+00 -1.532016265297189150e+00 1.471315342455804753e+00 -1.532016265297189150e+00 -2.487215556062091437e+00 -2.356629877273880957e+00 1.471315342455804753e+00 -2.356629877273880957e+00 4.189918006929805649e+00
4.252453240754461739e+00 -1.265552636184153812e+00 1.139760063260596867e+00 -1.265552636184153812e+00 -7.357447946671809014e-01 -2.995989578361462513e+00 1.139760063260596867e+00 -2.995989578361462513e+00 5.579573791245644898e+00
4.203132020589144702e+00 -1.581322859365550837e+00 1.013747939252291230e+00 -1.581322859365550837e+00 5.135822552167465527e-02 -3.438199151302026912e+00 1.013747939252291230e+00 -3.438199151302026912e+00 7.020203752684316179e+00
3.185514599274930525e+00 -2.301220134998064548e+00 1.174859369236969098e+00 -2.301220134998064548e+00 -1.435833196566247194e+00 -3.268305059849203165e+00 1.174859369236969098e+00 -3.268305059849203165e+00 6.147509148843304239e+00
1.080396324050905132e-01 -2.818222501782527534e+00 9.824173422318728255e-01 -2.818222501782527534e+00 -5.099301842464496914e+00 -3.114679841289461404e+00 9.824173422318728255e-01 -3.114679841289461404e+00 4.298648717713084544e+00
-4.829722220129849752e+00 -2.917725875589118001e+00 6.889475949654356723e-01 -2.917725875589118001e+00 -9.356746455158493347e+00 -3.273796483963745452e+00 6.889475949654356723e-01 -3.273796483963745452e+00 9.729606230969668479e-01
-6.414851750494594995e+00 -2.325935117246838324e+00 5.173922792386084213e-01 -2.325935117246838324e+00 -1.085194030550526634e+01 -3.385398674260287954e+00 5.173922792386084213e-01 -3.385398674260287954e+00 -2.935347841133741920e+00
-4.557986865282964928e+00 -1.246396503168080372e+00 4.321434488842144650e-01 -1.246396503168080372e+00 -8.579316725498683738e+00 -3.549608980804372926e+00 4.321434488842144650e-01 -3.549608980804372926e+00 -4.020731313487012848e+00
-7.278005351939865752e-01 -6.297850307938029912e-01 5.477024346985057690e-01 -6.297850307938029912e-01 -4.984994395115504240e+00 -3.919546880019608270e+00 5.477024346985057690e-01 -3.919546880019608270e+00 -1.998993310118037270e+00
1.510591403158427992e+00 -1.045473125307334605e+00 1.987549631898691271e-01 -1.045473125307334605e+00 -1.994866137855118682e+00 -4.242746168474516466e+00 1.987549631898691271e-01 -4.242746168474516466e+00 7.605570335906152168e-01
4.518617228516825790e-01 -1.403009126800910833e+00 7.615342415060379067e-02 -1.403009126800910833e+00 -2.382944540677987000e+00 -4.440255934960608108e+00 7.615342415060379067e-02 -4.440255934960608108e+00 3.024335130623339474e+00
-2.176875448235586319e+00 -1.285042339008655610e+00 5.201834240613233823e-02 -1.285042339008655610e+00 -4.771306697599421831e+00 -4.440633036034921766e+00 5.201834240613233823e-02 -4.440633036034921766e+00 1.448437192726635292e+00