7.968944543300481520e+00 0.000000000000000000e+00 0.000000000000000000e+00 0.000000000000000000e+00 7.968944543300481520e+00 0.000000000000000000e+00 0.000000000000000000e+00 0.000000000000000000e+00 7.968944543300481520e+00
7.968233265208812810e+00 0.000000000000000000e+00 0.000000000000000000e+00 0.000000000000000000e+00 7.968233265208812810e+00 0.000000000000000000e+00 0.000000000000000000e+00 0.000000000000000000e+00 7.968233265208812810e+00
7.968806095207431106e+00 0.000000000000000000e+00 0.000000000000000000e+00 0.000000000000000000e+00 7.968806095207431106e+00 0.000000000000000000e+00 0.000000000000000000e+00 0.000000000000000000e+00 7.968806095207431106e+00
7.973085563109525431e+00 0.000000000000000000e+00 0.000000000000000000e+00 0.000000000000000000e+00 7.973085563109525431e+00 0.000000000000000000e+00 0.000000000000000000e+00 0.000000000000000000e+00 7.973085563109525431e+00
7.980611751140520127e+00 0.000000000000000000e+00 0.000000000000000000e+00 0.000000000000000000e+00 7.980611751140520127e+00 0.000000000000000000e+00 0.000000000000000000e+00 0.000000000000000000e+00 7.980611751140520127e+00
7.989893657099075064e+00 0.000000000000000000e+00 0.000000000000000000e+00 0.000000000000000000e+00 7.989893657099075064e+00 0.000000000000000000e+00 0.000000000000000000e+00 0.000000000000000000e+00 7.989893657099075064e+00
7.999417049324560658e+00 0.000000000000000000e+00 0.000000000000000000e+00 0.000000000000000000e+00 7.999417049324560658e+00 0.000000000000000000e+00 0.000000000000000000e+00 0.000000000000000000e+00 7.999417049324560658e+00
8.008724075135518206e+00 0.000000000000000000e+00 0.000000000000000000e+00 0.000000000000000000e+00 8.008724075135518206e+00 0.000000000000000000e+00 0.000000000000000000e+00 0.000000000000000000e+00 8.008724075135518206e+00
8.018850588453258155e+00 0.000000000000000000e+00 0.000000000000000000e+00 0.000000000000000000e+00 8.018850588453258155e+00 0.000000000000000000e+00 0.000000000000000000e+00 0.000000000000000000e+00 8.018850588453258155e+00
8.030127920896536153e+00 0.000000000000000000e+00 0.000000000000000000e+00 0.000000000000000000e+00 8.030127920896536153e+00 0.000000000000000000e+00 0.000000000000000000e+00 0.000000000000000000e+00 8.030127920896536153e+00
8.040888472078563609e+00 0.000000000000000000e+00 0.000000000000000000e+00 0.000000000000000000e+00 8.040888472078563609e+00 0.000000000000000000e+00 0.000000000000000000e+00 0.000000000000000000e+00 8.040888472078563609e+00
8.049457029382367068e+00 0.000000000000000000e+00 0.000000000000000000e+00 0.000000000000000000e+00 8.049457029382367068e+00 0.000000000000000000e+00 0.000000000000000000e+00 0.000000000000000000e+00 8.049457029382367068e+00
8.055358954144111294e+00 0.000000000000000000e+00 0.000000000000000000e+00 0.000000000000000000e+00 8.055358954144111294e+00 0.000000000000000000e+00 0.000000000000000000e+00 0.000000000000000000e+00 8.055358954144111294e+00
8.059477115960730131e+00 0.000000000000000000e+00 0.000000000000000000e+00 0.000000000000000000e+00 8.059477115960730131e+00 0.000000000000000000e+00 0.000000000000000000e+00 0.000000000000000000e+00 8.059477115960730131e+00
8.062086362566121878e+00 0.000000000000000000e+00 0.000000000000000000e+00 0.000000000000000000e+00 8.062086362566121878e+00 0.000000000000000000e+00 0.000000000000000000e+00 0.000000000000000000e+00 8.062086362566121878e+00
8.062878821617488256e+00 0.000000000000000000e+00 0.000000000000000000e+00 0.000000000000000000e+00 8.062878821617488256e+00 0.000000000000000000e+00 0.000000000000000000e+00 0.000000000000000000e+00 8.062878821617488256e+00
8.061771684139506178e+00 0.000000000000000000e+00 0.000000000000000000e+00 0.000000000000000000e+00 8.061771684139506178e+00 0.000000000000000000e+00 0.000000000000000000e+00 0.000000000000000000e+00 8.061771684139506178e+00
8.059745481692937474e+00 0.000000000000000000e+00 0.000000000000000000e+00 0.000000000000000000e+00 8.059745481692937474e+00 0.000000000000000000e+00 0.000000000000000000e+00 0.000000000000000000e+00 8.059745481692937474e+00
8.059107634230578299e+00 0.000000000000000000e+00 0.000000000000000000e+00 0.000000000000000000e+00 8.059107634230578299e+00 0.000000000000000000e+00 0.000000000000000000e+00 0.000000000000000000e+00 8.059107634230578299e+00
8.062045280189604313e+00 0.000000000000000000e+00 0.000000000000000000e+00 0.000000000000000000e+00 8.062045280189604313e+00 0.000000000000000000e+00 0.000000000000000000e+00 0.000000000000000000e+00 8.062045280189604313e+00
8.068016858587402140e+00 0.000000000000000000e+00 0.000000000000000000e+00 0.000000000000000000e+00 8.068016858587402140e+00 0.000000000000000000e+00 0.000000000000000000e+00 0.000000000000000000e+00 8.068016858587402140e+00
8.074899478198970471e+00 0.000000000000000000e+00 0.000000000000000000e+00 0.000000000000000000e+00 8.074899478198970471e+00 0.000000000000000000e+00 0.000000000000000000e+00 0.000000000000000000e+00 8.074899478198970471e+00
8.080546061534535696e+00 0.000000000000000000e+00 0.000000000000000000e+00 0.000000000000000000e+00 8.080546061534535696e+00 0.000000000000000000e+00 0.000000000000000000e+00 0.000000000000000000e+00 8.080546061534535696e+00
8.083462761832130639e+00 0.000000000000000000e+00 0.000000000000000000e+00 0.000000000000000000e+00 8.083462761832130639e+00 0.000000000000000000e+00 0.000000000000000000e+00 0.000000000000000000e+00 8.083462761832130639e+00
8.084143394144206241e+00 0.000000000000000000e+00 0.000000000000000000e+00 0.000000000000000000e+00 8.084143394144206241e+00 0.000000000000000000e+00 0.000000000000000000e+00 0.000000000000000000e+00 8.084143394144206241e+00
8.084006302179348680e+00 0.000000000000000000e+00 0.000000000000000000e+00 0.000000000000000000e+00 8.084006302179348680e+00 0.000000000000000000e+00 0.000000000000000000e+00 0.000000000000000000e+00 8.084006302179348680e+00
8.083905294954776721e+00 0.000000000000000000e+00 0.000000000000000000e+00 0.000000000000000000e+00 8.083905294954776721e+00 0.000000000000000000e+00 0.000000000000000000e+00 0.000000000000000000e+00 8.083905294954776721e+00
8.084135505105617625e+00 0.000000000000000000e+00 0.000000000000000000e+00 0.000000000000000000e+00 8.084135505105617625e+00 0.000000000000000000e+00 0.000000000000000000e+00 0.000000000000000000e+00 8.084135505105617625e+00
8.083853482308025917e+00 0.000000000000000000e+00 0.000000000000000000e+00 0.000000000000000000e+00 8.083853482308025917e+00 0.000000000000000000e+00 0.000000000000000000e+00 0.000000000000000000e+00 8.083853482308025917e+00
8.082227150329682530e+00 0.000000000000000000e+00 0.000000000000000000e+00 0.000000000000000000e+00 8.082227150329682530e+00 0.000000000000000000e+00 0.000000000000000000e+00 0.000000000000000000e+00 8.082227150329682530e+00
8.079027293361022544e+00 0.000000000000000000e+00 0.000000000000000000e+00 0.000000000000000000e+00 8.079027293361022544e+00 0.000000000000000000e+00 0.000000000000000000e+00 0.000000000000000000e+00 8.079027293361022544e+00
8.074101419498836307e+00 0.000000000000000000e+00 0.000000000000000000e+00 0.000000000000000000e+00 8.074101419498836307e+00 0.000000000000000000e+00 0.000000000000000000e+00 0.000000000000000000e+00 8.074101419498836307e+00
8.067849898957470955e+00 0.000000000000000000e+00 0.000000000000000000e+00 0.000000000000000000e+00 8.067849898957470955e+00 0.000000000000000000e+00 0.000000000000000000e+00 0.000000000000000000e+00 8.067849898957470955e+00
8.061832980252667369e+00 0.000000000000000000e+00 0.000000000000000000e+00 0.000000000000000000e+00 8.061832980252667369e+00 0.000000000000000000e+00 0.000000000000000000e+00 0.000000000000000000e+00 8.061832980252667369e+00
8.056735550210008867e+00 0.000000000000000000e+00 0.000000000000000000e+00 0.000000000000000000e+00 8.056735550210008867e+00 0.000000000000000000e+00 0.000000000000000000e+00 0.000000000000000000e+00 8.056735550210008867e+00
8.050043217706090104e+00 0.000000000000000000e+00 0.000000000000000000e+00 0.000000000000000000e+00 8.050043217706090104e+00 0.000000000000000000e+00 0.000000000000000000e+00 0.000000000000000000e+00 8.050043217706090104e+00
8.040470812830735170e+00 0.000000000000000000e+00 0.000000000000000000e+00 0.000000000000000000e+00 8.040470812830735170e+00 0.000000000000000000e+00 0.000000000000000000e+00 0.000000000000000000e+00 8.040470812830735170e+00
8.028987027133865695e+00 0.000000000000000000e+00 0.000000000000000000e+00 0.000000000000000000e+00 8.028987027133865695e+00 0.000000000000000000e+00 0.000000000000000000e+00 0.000000000000000000e+00 8.028987027133865695e+00
8.016716690745615992e+00 0.000000000000000000e+00 0.000000000000000000e+00 0.000000000000000000e+00 8.016716690745615992e+00 0.000000000000000000e+00 0.000000000000000000e+00 0.000000000000000000e+00 8.016716690745615992e+00
8.004324907485450780e+00 0.000000000000000000e+00 0.000000000000000000e+00 0.000000000000000000e+00 8.004324907485450780e+00 0.000000000000000000e+00 0.000000000000000000e+00 0.000000000000000000e+00 8.004324907485450780e+00
7.992716758139454036e+00 0.000000000000000000e+00 0.000000000000000000e+00 0.000000000000000000e+00 7.992716758139454036e+00 0.000000000000000000e+00 0.000000000000000000e+00 0.000000000000000000e+00 7.992716758139454036e+00
7.983285111011856117e+00 0.000000000000000000e+00 0.000000000000000000e+00 0.000000000000000000e+00 7.983285111011856117e+00 0.000000000000000000e+00 0.000000000000000000e+00 0.000000000000000000e+00 7.983285111011856117e+00
7.976636008385092680e+00 0.000000000000000000e+00 0.000000000000000000e+00 0.000000000000000000e+00 7.976636008385092680e+00 0.000000000000000000e+00 0.000000000000000000e+00 0.000000000000000000e+00 7.976636008385092680e+00
7.972310092102369516e+00 0.000000000000000000e+00 0.000000000000000000e+00 0.000000000000000000e+00 7.972310092102369516e+00 0.000000000000000000e+00 0.000000000000000000e+00 0.000000000000000000e+00 7.972310092102369516e+00
7.970946368052375774e+00 0.000000000000000000e+00 0.000000000000000000e+00 0.000000000000000000e+00 7.970946368052375774e+00 0.000000000000000000e+00 0.000000000000000000e+00 0.000000000000000000e+00 7.970946368052375774e+00
7.974039169036282182e+00 0.000000000000000000e+00 0.000000000000000000e+00 0.000000000000000000e+00 7.974039169036282182e+00 0.000000000000000000e+00 0.000000000000000000e+00 0.000000000000000000e+00 7.974039169036282182e+00
7.981162791748564800e+00 0.000000000000000000e+00 0.000000000000000000e+00 0.000000000000000000e+00 7.981162791748564800e+00 0.000000000000000000e+00 0.000000000000000000e+00 0.000000000000000000e+00 7.981162791748564800e+00
7.989444169435460985e+00 0.000000000000000000e+00 0.000000000000000000e+00 0.000000000000000000e+00 7.989444169435460985e+00 0.000000000000000000e+00 0.000000000000000000e+00 0.000000000000000000e+00 7.989444169435460985e+00
7.996892525064482449e+00 0.000000000000000000e+00 0.000000000000000000e+00 0.000000000000000000e+00 7.996892525064482449e+00 0.000000000000000000e+00 0.000000000000000000e+00 0.000000000000000000e+00 7.996892525064482449e+00
8.003544042581346218e+00 0.000000000000000000e+00 0.000000000000000000e+00 0.000000000000000000e+00 8.003544042581346218e+00 0.000000000000000000e+00 0.000000000000000000e+00 0.000000000000000000e+00 8.003544042581346218e+00
8.010158216925164609e+00 0.000000000000000000e+00 0.000000000000000000e+00 0.000000000000000000e+00 8.010158216925164609e+00 0.000000000000000000e+00 0.000000000000000000e+00 0.000000000000000000e+00 8.010158216925164609e+00
8.016277772966159176e+00 0.000000000000000000e+00 0.000000000000000000e+00 0.000000000000000000e+00 8.016277772966159176e+00 0.000000000000000000e+00 0.000000000000000000e+00 0.000000000000000000e+00 8.016277772966159176e+00
8.021176397510201284e+00 0.000000000000000000e+00 0.000000000000000000e+00 0.000000000000000000e+00 8.021176397510201284e+00 0.000000000000000000e+00 0.000000000000000000e+00 0.000000000000000000e+00 8.021176397510201284e+00
8.023699129333595081e+00 0.000000000000000000e+00 0.000000000000000000e+00 0.000000000000000000e+00 8.023699129333595081e+00 0.000000000000000000e+00 0.000000000000000000e+00 0.000000000000000000e+00 8.023699129333595081e+00
8.023586538053704587e+00 0.000000000000000000e+00 0.000000000000000000e+00 0.000000000000000000e+00 8.023586538053704587e+00 0.000000000000000000e+00 0.000000000000000000e+00 0.000000000000000000e+00 8.023586538053704587e+00
8.021551631421241169e+00 0.000000000000000000e+00 0.000000000000000000e+00 0.000000000000000000e+00 8.021551631421241169e+00 0.000000000000000000e+00 0.000000000000000000e+00 0.000000000000000000e+00 8.021551631421241169e+00
8.018804562484197263e+00 0.000000000000000000e+00 0.000000000000000000e+00 0.000000000000000000e+00 8.018804562484197263e+00 0.000000000000000000e+00 0.000000000000000000e+00 0.000000000000000000e+00 8.018804562484197263e+00
8.016219778595990775e+00 0.000000000000000000e+00 0.000000000000000000e+00 0.000000000000000000e+00 8.016219778595990775e+00 0.000000000000000000e+00 0.000000000000000000e+00 0.000000000000000000e+00 8.016219778595990775e+00
8.014956451769082335e+00 0.000000000000000000e+00 0.000000000000000000e+00 0.000000000000000000e+00 8.014956451769082335e+00 0.000000000000000000e+00 0.000000000000000000e+00 0.000000000000000000e+00 8.014956451769082335e+00
8.014392528768192747e+00 0.000000000000000000e+00 0.000000000000000000e+00 0.000000000000000000e+00 8.014392528768192747e+00 0.000000000000000000e+00 0.000000000000000000e+00 0.000000000000000000e+00 8.014392528768192747e+00
8.013675299104781047e+00 0.000000000000000000e+00 0.000000000000000000e+00 0.000000000000000000e+00 8.013675299104781047e+00 0.000000000000000000e+00 0.000000000000000000e+00 0.000000000000000000e+00 8.013675299104781047e+00
8.013555035684055028e+00 0.000000000000000000e+00 0.000000000000000000e+00 0.000000000000000000e+00 8.013555035684055028e+00 0.000000000000000000e+00 0.000000000000000000e+00 0.000000000000000000e+00 8.013555035684055028e+00
8.014367238755768952e+00 0.000000000000000000e+00 0.000000000000000000e+00 0.000000000000000000e+00 8.014367238755768952e+00 0.000000000000000000e+00 0.000000000000000000e+00 0.000000000000000000e+00 8.014367238755768952e+00
8.014516079948993621e+00 0.000000000000000000e+00 0.000000000000000000e+00 0.000000000000000000e+00 8.014516079948993621e+00 0.000000000000000000e+00 0.000000000000000000e+00 0.000000000000000000e+00 8.014516079948993621e+00
8.012892496449827817e+00 0.000000000000000000e+00 0.000000000000000000e+00 0.000000000000000000e+00 8.012892496449827817e+00 0.000000000000000000e+00 0.000000000000000000e+00 0.000000000000000000e+00 8.012892496449827817e+00
8.010641355373074646e+00 0.000000000000000000e+00 0.000000000000000000e+00 0.000000000000000000e+00 8.010641355373074646e+00 0.000000000000000000e+00 0.000000000000000000e+00 0.000000000000000000e+00 8.010641355373074646e+00
8.008708785101532612e+00 0.000000000000000000e+00 0.000000000000000000e+00 0.000000000000000000e+00 8.008708785101532612e+00 0.000000000000000000e+00 0.000000000000000000e+00 0.000000000000000000e+00 8.008708785101532612e+00
8.006576232411147132e+00 0.000000000000000000e+00 0.000000000000000000e+00 0.000000000000000000e+00 8.006576232411147132e+00 0.000000000000000000e+00 0.000000000000000000e+00 0.000000000000000000e+00 8.006576232411147132e+00
8.004833222920433755e+00 0.000000000000000000e+00 0.000000000000000000e+00 0.000000000000000000e+00 8.004833222920433755e+00 0.000000000000000000e+00 0.000000000000000000e+00 0.000000000000000000e+00 8.004833222920433755e+00
8.005139058996951107e+00 0.000000000000000000e+00 0.000000000000000000e+00 0.000000000000000000e+00 8.005139058996951107e+00 0.000000000000000000e+00 0.000000000000000000e+00 0.000000000000000000e+00 8.005139058996951107e+00
8.008625212971598017e+00 0.000000000000000000e+00 0.000000000000000000e+00 0.000000000000000000e+00 8.008625212971598017e+00 0.000000000000000000e+00 0.000000000000000000e+00 0.000000000000000000e+00 8.008625212971598017e+00
8.015932208473332210e+00 0.000000000000000000e+00 0.000000000000000000e+00 0.000000000000000000e+00 8.015932208473332210e+00 0.000000000000000000e+00 0.000000000000000000e+00 0.000000000000000000e+00 8.015932208473332210e+00
8.026926177952732999e+00 0.000000000000000000e+00 0.000000000000000000e+00 0.000000000000000000e+00 8.026926177952732999e+00 0.000000000000000000e+00 0.000000000000000000e+00 0.000000000000000000e+00 8.026926177952732999e+00
8.039260708732458127e+00 0.000000000000000000e+00 0.000000000000000000e+00 0.000000000000000000e+00 8.039260708732458127e+00 0.000000000000000000e+00 0.000000000000000000e+00 0.000000000000000000e+00 8.039260708732458127e+00
8.051074120816902990e+00 0.000000000000000000e+00 0.000000000000000000e+00 0.000000000000000000e+00 8.051074120816902990e+00 0.000000000000000000e+00 0.000000000000000000e+00 0.000000000000000000e+00 8.051074120816902990e+00
8.063339522316557151e+00 0.000000000000000000e+00 0.000000000000000000e+00 0.000000000000000000e+00 8.063339522316557151e+00 0.000000000000000000e+00 0.000000000000000000e+00 0.000000000000000000e+00 8.063339522316557151e+00
8.076240848221639013e+00 0.000000000000000000e+00 0.000000000000000000e+00 0.000000000000000000e+00 8.076240848221639013e+00 0.000000000000000000e+00 0.000000000000000000e+00 0.000000000000000000e+00 8.076240848221639013e+00
8.086480055895677310e+00 0.000000000000000000e+00 0.000000000000000000e+00 0.000000000000000000e+00 8.086480055895677310e+00 0.000000000000000000e+00 0.000000000000000000e+00 0.000000000000000000e+00 8.086480055895677310e+00
8.091612857223728028e+00 0.000000000000000000e+00 0.000000000000000000e+00 0.000000000000000000e+00 8.091612857223728028e+00 0.000000000000000000e+00 0.000000000000000000e+00 0.000000000000000000e+00 8.091612857223728028e+00
8.093039214419185612e+00 0.000000000000000000e+00 0.000000000000000000e+00 0.000000000000000000e+00 8.093039214419185612e+00 0.000000000000000000e+00 0.000000000000000000e+00 0.000000000000000000e+00 8.093039214419185612e+00
8.092651196905730870e+00 0.000000000000000000e+00 0.000000000000000000e+00 0.000000000000000000e+00 8.092651196905730870e+00 0.000000000000000000e+00 0.000000000000000000e+00 0.000000000000000000e+00 8.092651196905730870e+00
8.091466749998764030e+00 0.000000000000000000e+00 0.000000000000000000e+00 0.000000000000000000e+00 8.091466749998764030e+00 0.000000000000000000e+00 0.000000000000000000e+00 0.000000000000000000e+00 8.091466749998764030e+00
8.088687311488049758e+00 0.000000000000000000e+00 0.000000000000000000e+00 0.000000000000000000e+00 8.088687311488049758e+00 0.000000000000000000e+00 0.000000000000000000e+00 0.000000000000000000e+00 8.088687311488049758e+00
8.082970382915412699e+00 0.000000000000000000e+00 0.000000000000000000e+00 0.000000000000000000e+00 8.082970382915412699e+00 0.000000000000000000e+00 0.000000000000000000e+00 0.000000000000000000e+00 8.082970382915412699e+00
8.073814261065805908e+00 0.000000000000000000e+00 0.000000000000000000e+00 0.000000000000000000e+00 8.073814261065805908e+00 0.000000000000000000e+00 0.000000000000000000e+00 0.000000000000000000e+00 8.073814261065805908e+00
8.063681602429440431e+00 0.000000000000000000e+00 0.000000000000000000e+00 0.000000000000000000e+00 8.063681602429440431e+00 0.000000000000000000e+00 0.000000000000000000e+00 0.000000000000000000e+00 8.063681602429440431e+00
8.054521746910328517e+00 0.000000000000000000e+00 0.000000000000000000e+00 0.000000000000000000e+00 8.054521746910328517e+00 0.000000000000000000e+00 0.000000000000000000e+00 0.000000000000000000e+00 8.054521746910328517e+00
8.047217033266457875e+00 0.000000000000000000e+00 0.000000000000000000e+00 0.000000000000000000e+00 8.047217033266457875e+00 0.000000000000000000e+00 0.000000000000000000e+00 0.000000000000000000e+00 8.047217033266457875e+00
8.041001691489837455e+00 0.000000000000000000e+00 0.000000000000000000e+00 0.000000000000000000e+00 8.041001691489837455e+00 0.000000000000000000e+00 0.000000000000000000e+00 0.000000000000000000e+00 8.041001691489837455e+00
8.034978128108281936e+00 0.000000000000000000e+00 0.000000000000000000e+00 0.000000000000000000e+00 8.034978128108281936e+00 0.000000000000000000e+00 0.000000000000000000e+00 0.000000000000000000e+00 8.034978128108281936e+00
8.029542677898371394e+00 0.000000000000000000e+00 0.000000000000000000e+00 0.000000000000000000e+00 8.029542677898371394e+00 0.000000000000000000e+00 0.000000000000000000e+00 0.000000000000000000e+00 8.029542677898371394e+00
8.026978929936076312e+00 0.000000000000000000e+00 0.000000000000000000e+00 0.000000000000000000e+00 8.026978929936076312e+00 0.000000000000000000e+00 0.000000000000000000e+00 0.000000000000000000e+00 8.026978929936076312e+00
8.026816265540421824e+00 0.000000000000000000e+00 0.000000000000000000e+00 0.000000000000000000e+00 8.026816265540421824e+00 0.000000000000000000e+00 0.000000000000000000e+00 0.000000000000000000e+00 8.026816265540421824e+00
8.027264200330973765e+00 0.000000000000000000e+00 0.000000000000000000e+00 0.000000000000000000e+00 8.027264200330973765e+00 0.000000000000000000e+00 0.000000000000000000e+00 0.000000000000000000e+00 8.027264200330973765e+00
8.028225610085810260e+00 0.000000000000000000e+00 0.000000000000000000e+00 0.000000000000000000e+00 8.028225610085810260e+00 0.000000000000000000e+00 0.000000000000000000e+00 0.000000000000000000e+00 8.028225610085810260e+00
8.029538428552831064e+00 0.000000000000000000e+00 0.000000000000000000e+00 0.000000000000000000e+00 8.029538428552831064e+00 0.000000000000000000e+00 0.000000000000000000e+00 0.000000000000000000e+00 8.029538428552831064e+00
8.030425633212814773e+00 0.000000000000000000e+00 0.000000000000000000e+00 0.000000000000000000e+00 8.030425633212814773e+00 0.000000000000000000e+00 0.000000000000000000e+00 0.000000000000000000e+00 8.030425633212814773e+00
8.030292018271941501e+00 0.000000000000000000e+00 0.000000000000000000e+00 0.000000000000000000e+00 8.030292018271941501e+00 0.000000000000000000e+00 0.000000000000000000e+00 0.000000000000000000e+00 8.030292018271941501e+00
8.029108902941310077e+00 0.000000000000000000e+00 0.000000000000000000e+00 0.000000000000000000e+00 8.029108902941310077e+00 0.000000000000000000e+00 0.000000000000000000e+00 0.000000000000000000e+00 8.029108902941310077e+00
8.026404212643321046e+00 0.000000000000000000e+00 0.000000000000000000e+00 0.000000000000000000e+00 8.026404212643321046e+00 0.000000000000000000e+00 0.000000000000000000e+00 0.000000000000000000e+00 8.026404212643321046e+00
8.022363689255792352e+00 0.000000000000000000e+00 0.000000000000000000e+00 0.000000000000000000e+00 8.022363689255792352e+00 0.000000000000000000e+00 0.000000000000000000e+00 0.000000000000000000e+00 8.022363689255792352e+00
8.018092654733152358e+00 0.000000000000000000e+00 0.000000000000000000e+00 0.000000000000000000e+00 8.018092654733152358e+00 0.000000000000000000e+00 0.000000000000000000e+00 0.000000000000000000e+00 8.018092654733152358e+00
8.014109282619640950e+00 0.000000000000000000e+00 0.000000000000000000e+00 0.000000000000000000e+00 8.014109282619640950e+00 0.000000000000000000e+00 0.000000000000000000e+00 0.000000000000000000e+00 8.014109282619640950e+00
8.009989018894120960e+00 0.000000000000000000e+00 0.000000000000000000e+00 0.000000000000000000e+00 8.009989018894120960e+00 0.000000000000000000e+00 0.000000000000000000e+00 0.000000000000000000e+00 8.009989018894120960e+00
8.005592476326944151e+00 0.000000000000000000e+00 0.000000000000000000e+00 0.000000000000000000e+00 8.005592476326944151e+00 0.000000000000000000e+00 0.000000000000000000e+00 0.000000000000000000e+00 8.005592476326944151e+00
8.001551413376517985e+00 0.000000000000000000e+00 0.000000000000000000e+00 0.000000000000000000e+00 8.001551413376517985e+00 0.000000000000000000e+00 0.000000000000000000e+00 0.000000000000000000e+00 8.001551413376517985e+00
7.998835726620829867e+00 0.000000000000000000e+00 0.000000000000000000e+00 0.000000000000000000e+00 7.998835726620829867e+00 0.000000000000000000e+00 0.000000000000000000e+00 0.000000000000000000e+00 7.998835726620829867e+00
7.997636560939588080e+00 0.000000000000000000e+00 0.000000000000000000e+00 0.000000000000000000e+00 7.997636560939588080e+00 0.000000000000000000e+00 0.000000000000000000e+00 0.000000000000000000e+00 7.997636560939588080e+00
7.996919455605462801e+00 0.000000000000000000e+00 0.000000000000000000e+00 0.000000000000000000e+00 7.996919455605462801e+00 0.000000000000000000e+00 0.000000000000000000e+00 0.000000000000000000e+00 7.996919455605462801e+00
7.995585657071208274e+00 0.000000000000000000e+00 0.000000000000000000e+00 0.000000000000000000e+00 7.995585657071208274e+00 0.000000000000000000e+00 0.000000000000000000e+00 0.000000000000000000e+00 7.995585657071208274e+00
7.994434323984628499e+00 0.000000000000000000e+00 0.000000000000000000e+00 0.000000000000000000e+00 7.994434323984628499e+00 0.000000000000000000e+00 0.000000000000000000e+00 0.000000000000000000e+00 7.994434323984628499e+00
7.996553451893290365e+00 0.000000000000000000e+00 0.000000000000000000e+00 0.000000000000000000e+00 7.996553451893290365e+00 0.000000000000000000e+00 0.000000000000000000e+00 0.000000000000000000e+00 7.996553451893290365e+00
8.004043697191182360e+00 0.000000000000000000e+00 0.000000000000000000e+00 0.000000000000000000e+00 8.004043697191182360e+00 0.000000000000000000e+00 0.000000000000000000e+00 0.000000000000000000e+00 8.004043697191182360e+00
8.014274884323388193e+00 0.000000000000000000e+00 0.000000000000000000e+00 0.000000000000000000e+00 8.014274884323388193e+00 0.000000000000000000e+00 0.000000000000000000e+00 0.000000000000000000e+00 8.014274884323388193e+00
8.023711834514461572e+00 0.000000000000000000e+00 0.000000000000000000e+00 0.000000000000000000e+00 8.023711834514461572e+00 0.000000000000000000e+00 0.000000000000000000e+00 0.000000000000000000e+00 8.023711834514461572e+00
8.031361240313177774e+00 0.000000000000000000e+00 0.000000000000000000e+00 0.000000000000000000e+00 8.031361240313177774e+00 0.000000000000000000e+00 0.000000000000000000e+00 0.000000000000000000e+00 8.031361240313177774e+00
8.038570303603639999e+00 0.000000000000000000e+00 0.000000000000000000e+00 0.000000000000000000e+00 8.038570303603639999e+00 0.000000000000000000e+00 0.000000000000000000e+00 0.000000000000000000e+00 8.038570303603639999e+00
8.046687778951007175e+00 0.000000000000000000e+00 0.000000000000000000e+00 0.000000000000000000e+00 8.046687778951007175e+00 0.000000000000000000e+00 0.000000000000000000e+00 0.000000000000000000e+00 8.046687778951007175e+00
8.054038639134240896e+00 0.000000000000000000e+00 0.000000000000000000e+00 0.000000000000000000e+00 8.054038639134240896e+00 0.000000000000000000e+00 0.000000000000000000e+00 0.000000000000000000e+00 8.054038639134240896e+00
8.057464133669064665e+00 0.000000000000000000e+00 0.000000000000000000e+00 0.000000000000000000e+00 8.057464133669064665e+00 0.000000000000000000e+00 0.000000000000000000e+00 0.000000000000000000e+00 8.057464133669064665e+00
8.055955305992329230e+00 0.000000000000000000e+00 0.000000000000000000e+00 0.000000000000000000e+00 8.055955305992329230e+00 0.000000000000000000e+00 0.000000000000000000e+00 0.000000000000000000e+00 8.055955305992329230e+00
8.051581194868029812e+00 0.000000000000000000e+00 0.000000000000000000e+00 0.000000000000000000e+00 8.051581194868029812e+00 0.000000000000000000e+00 0.000000000000000000e+00 0.000000000000000000e+00 8.051581194868029812e+00
8.046826957133855984e+00 0.000000000000000000e+00 0.000000000000000000e+00 0.000000000000000000e+00 8.046826957133855984e+00 0.000000000000000000e+00 0.000000000000000000e+00 0.000000000000000000e+00 8.046826957133855984e+00
8.042717566543744923e+00 0.000000000000000000e+00 0.000000000000000000e+00 0.000000000000000000e+00 8.042717566543744923e+00 0.000000000000000000e+00 0.000000000000000000e+00 0.000000000000000000e+00 8.042717566543744923e+00
8.039374033441127665e+00 0.000000000000000000e+00 0.000000000000000000e+00 0.000000000000000000e+00 8.039374033441127665e+00 0.000000000000000000e+00 0.000000000000000000e+00 0.000000000000000000e+00 8.039374033441127665e+00
8.036678230651981281e+00 0.000000000000000000e+00 0.000000000000000000e+00 0.000000000000000000e+00 8.036678230651981281e+00 0.000000000000000000e+00 0.000000000000000000e+00 0.000000000000000000e+00 8.036678230651981281e+00
8.034522424253450978e+00 0.000000000000000000e+00 0.000000000000000000e+00 0.000000000000000000e+00 8.034522424253450978e+00 0.000000000000000000e+00 0.000000000000000000e+00 0.000000000000000000e+00 8.034522424253450978e+00
8.034941585291635491e+00 0.000000000000000000e+00 0.000000000000000000e+00 0.000000000000000000e+00 8.034941585291635491e+00 0.000000000000000000e+00 0.000000000000000000e+00 0.000000000000000000e+00 8.034941585291635491e+00
8.039428424237039295e+00 0.000000000000000000e+00 0.000000000000000000e+00 0.000000000000000000e+00 8.039428424237039295e+00 0.000000000000000000e+00 0.000000000000000000e+00 0.000000000000000000e+00 8.039428424237039295e+00
8.044697397246244108e+00 0.000000000000000000e+00 0.000000000000000000e+00 0.000000000000000000e+00 8.044697397246244108e+00 0.000000000000000000e+00 0.000000000000000000e+00 0.000000000000000000e+00 8.044697397246244108e+00
8.048771706087293865e+00 0.000000000000000000e+00 0.000000000000000000e+00 0.000000000000000000e+00 8.048771706087293865e+00 0.000000000000000000e+00 0.000000000000000000e+00 0.000000000000000000e+00 8.048771706087293865e+00
8.052692802747282386e+00 0.000000000000000000e+00 0.000000000000000000e+00 0.000000000000000000e+00 8.052692802747282386e+00 0.000000000000000000e+00 0.000000000000000000e+00 0.000000000000000000e+00 8.052692802747282386e+00
8.058486930101539158e+00 0.000000000000000000e+00 0.000000000000000000e+00 0.000000000000000000e+00 8.058486930101539158e+00 0.000000000000000000e+00 0.000000000000000000e+00 0.000000000000000000e+00 8.058486930101539158e+00