7.943923029698000349e+00 7.888279423708000060e+00 7.905732663647000003e+00 7.942023203397000408e+00 7.886818512491999833e+00 3.923598856274999935e+00 7.932582168839999781e+00 3.906621614156000177e+00 7.901680403040000300e+00 7.948594816265999619e+00 3.895835678959000070e+00 3.919868620243000201e+00 3.958716842564999894e+00 7.895224426761999759e+00 7.899182972782000434e+00 3.956491194462000038e+00 7.888243302839000215e+00 3.920138648697999884e+00 3.950776904661999822e+00 3.903666163770000086e+00 7.903502883087999642e+00 3.960238097251000067e+00 3.908324584759999887e+00 3.912812060628000133e+00 2.137009730805000007e+00 2.018034844784999837e+00 1.900379012951000091e+00 2.122052632812000184e+00 2.008496515930000115e+00 5.893095549533000188e+00 6.104245741736000319e+00 2.027734160864000046e+00 1.898804186161000107e+00 6.110464958418999615e+00 5.988096712418999878e+00 1.892908950847999927e+00 6.103370551355999929e+00 5.991907009193999656e+00 5.876090709854000060e+00 2.121710554731000009e+00 6.003891890398000086e+00 1.898731217377999991e+00 2.117901841774000093e+00 5.994881069932000095e+00 5.874812150751999695e+00 6.105279727570000148e+00 2.007040063813999797e+00 5.901303417430000309e+00 1.992661752874999914e+00 2.022728203734999841e+00 2.061047036000000169e-03 7.959518330006999598e+00 1.991201253712999941e+00 2.003428625914999817e+00 1.994811606157999906e+00 2.124582184999999988e-03 1.980173620346000085e+00 2.004623109675999881e+00 2.011708040483000115e+00 3.964916763076999917e+00 9.178301454999999304e-03 1.979846489060000048e+00 5.975489649034999573e+00 2.004960346873000177e+00 1.344044591799999945e-02 5.970335028273000333e+00 1.986635715018999937e+00 5.982263314128999809e+00 7.953756846529000057e+00 1.778599752900000136e-02 5.984881923116000202e+00 1.994488107356999995e+00 1.995945608366000101e+00 3.998554695491999933e+00 1.991406061271999928e+00 2.001353246270999975e+00 5.971501476151000354e+00 4.002093989882999914e+00 2.886927256999999910e-03 5.985811101693999881e+00 5.976234988856999664e+00 1.968792502774000086e+00 4.013924974894999664e+00 5.964075286336999682e+00 5.985921613257000118e+00 1.971681902715999968e+00 1.724097097699999956e-02 3.971396256712000028e+00 1.988535908715999945e+00 1.971254981735000023e+00 5.962396618710999796e+00 7.959657891597999857e+00 2.013351119130000200e+00 5.944077315790999627e+00 1.992414849795999920e+00 4.005038068544999774e+00 4.002484645165999666e+00 1.978713745214000008e+00 5.996942530487999967e+00 5.964206822897000215e+00 7.955482080316000015e+00 5.963363846384000411e+00 5.981517492441000172e+00 5.955788508750999632e+00 7.960251475735000248e+00 3.989299853711000043e+00 5.972153726684999775e+00 1.996988673434999972e+00 5.964419434879999926e+00 3.993050729075000138e+00 1.983351967653999903e+00 5.974859260528000426e+00 5.967648259229999752e+00 3.976892965175999883e+00 3.994333765963999916e+00 5.986643829602000366e+00 5.978673572895999655e+00 5.977609840846000111e+00 3.997884502033000054e+00 5.996171921745999889e+00
7.951439459126000031e+00 7.886792967853000214e+00 7.918136931932999723e+00 7.939202062944000104e+00 7.878617923574999793e+00 3.951529484567000150e+00 7.884023969991000413e+00 3.913687336209000112e+00 7.893380729323999923e+00 1.116380136099999996e-02 3.848179973190999803e+00 3.929649924003999928e+00 3.970087292765999809e+00 7.928360582626999609e+00 7.879140327054999560e+00 3.957911499630999863e+00 7.887441844369999622e+00 3.930599626838000127e+00 3.922026138812999996e+00 3.896322062918999851e+00 7.904922803749999893e+00 3.979531936143999804e+00 3.923089967380000154e+00 3.886908330533000111e+00 2.201851281474000110e+00 2.034718050286000057e+00 1.905684164845000028e+00 2.114765330530000043e+00 1.976304930261000070e+00 5.934122809423000078e+00 6.094952893516000003e+00 2.085220514905000044e+00 1.907431387896999953e+00 6.129837611865999847e+00 5.938028861849000251e+00 1.859345671635000086e+00 6.086762245503000379e+00 5.953141504008000240e+00 5.835009540048000432e+00 2.118194926665000200e+00 6.024630990017000087e+00 1.892479729586999948e+00 2.096516789862000074e+00 5.973546909973999952e+00 5.836423366772000243e+00 6.075708195786000410e+00 1.965110525615999970e+00 6.000231065610000414e+00 2.001000965254999819e+00 2.174135748010999958e+00 1.740053236100000053e-02 7.930968589236999655e+00 1.991661008259000054e+00 2.058791405328999957e+00 2.012405104492000163e+00 2.972063588999999863e-03 1.923336243100999932e+00 2.077904552855000198e+00 2.111082305651000190e+00 3.876336831836999952e+00 1.529709859670000116e-01 1.925360985670999892e+00 5.974297962902999970e+00 2.074463209274000075e+00 6.374154397200000599e-02 5.941983739330000347e+00 1.966050580794999947e+00 6.013071401133999849e+00 7.896814169746000367e+00 1.085846651910000044e-01 6.025119216505999908e+00 2.007052482348000044e+00 2.019359044445999896e+00 4.075029670342999566e+00 1.987962603419999974e+00 2.045240635348999803e+00 5.954283882296000030e+00 4.015093075993999783e+00 4.733122436300000319e-02 6.040388994378999676e+00 5.973804551861999990e+00 1.870277552646000041e+00 4.141429801166999880e+00 5.907133602620000090e+00 6.030330993177999588e+00 1.874476641795999932e+00 1.348313484560000053e-01 3.912125953223000163e+00 1.975944589720000089e+00 1.865320101230000027e+00 5.894344397379000178e+00 7.888945659287999845e+00 2.110011232428000039e+00 5.778067216596999955e+00 2.006279453138000157e+00 4.005232281498999569e+00 4.012424024171999726e+00 1.924862136952999903e+00 6.105985546734999936e+00 5.904419344289999927e+00 7.827020816029000017e+00 5.907719060878999784e+00 6.008453572804000054e+00 5.868212934852000018e+00 7.951187198030000403e+00 4.012952943494999758e+00 5.951509138822999923e+00 2.018457051067000130e+00 5.903818798322999939e+00 4.041048200398999590e+00 1.938199003999000025e+00 5.968248849730000138e+00 5.921368551579999640e+00 3.926406986900000007e+00 4.027794949860999729e+00 6.033196446735000329e+00 5.990970525258999757e+00 5.983081453698000374e+00 4.115719656139000371e+00 6.098416703610999967e+00
7.957035880259000216e+00 7.890138032840999571e+00 7.929001154478999780e+00 7.932080962905000199e+00 7.876580766402000222e+00 3.980625113267000081e+00 7.835744209042999842e+00 3.919034058452000036e+00 7.882737060529000139e+00 3.998221647499999865e-02 3.796923513628999824e+00 3.941610606573000108e+00 3.988828503805000203e+00 7.965941257615000382e+00 7.857246920770999843e+00 3.970231780298000057e+00 7.893771950576000229e+00 3.942630525360999894e+00 3.899506708825000167e+00 3.888205139951999900e+00 7.904364032194999723e+00 4.006803817754000185e+00 3.934114444885000061e+00 3.863377098336000071e+00 2.214926554902000078e+00 2.049314213739000134e+00 1.918935953209000012e+00 2.094200182754999862e+00 1.941100112201999961e+00 5.969802639302000280e+00 6.083461833400000351e+00 2.119401455713000093e+00 1.958939427145999890e+00 6.135716228356000279e+00 5.915262779678999827e+00 1.833335832254999964e+00 6.064279685151999999e+00 5.918550220887000002e+00 5.788922519411999978e+00 2.110603461275999848e+00 6.039521399038999760e+00 1.880360540599999908e+00 2.072125346783999955e+00 5.960619951344000356e+00 5.819829373164999708e+00 6.021932546668000263e+00 1.917725397489999928e+00 6.089557855457999658e+00 2.001827389196999984e+00 2.316348580374000043e+00 9.818343538000000661e-03 7.921115691514000190e+00 2.009642147610999796e+00 2.119092462011999967e+00 2.036101641640999826e+00 3.041975714700000111e-02 1.875983644856000110e+00 2.163067283203000013e+00 2.209375090846000145e+00 3.841179275751999800e+00 3.166798583800000122e-01 1.890772180838000027e+00 5.973428256903000388e+00 2.141704664067999975e+00 9.700974089800000477e-02 5.920167236331000282e+00 1.964461697603000045e+00 6.051627526915999589e+00 7.895459286390999587e+00 1.462528984719999869e-01 6.057404079490999571e+00 2.022212161205000136e+00 2.046166627921000014e+00 4.115652583903999684e+00 1.983162586708000052e+00 2.079366021910999951e+00 5.970700210812999842e+00 3.888207982417999808e+00 1.002978370920000056e-01 6.120092653302999786e+00 5.965365887539999967e+00 1.811200333209999958e+00 4.137469368095000100e+00 5.868345131724000296e+00 6.077177849142000099e+00 1.784893375678999972e+00 1.991109484099999882e-01 3.957632053669000172e+00 1.979105778497999957e+00 1.762011780294999941e+00 5.851078487118999583e+00 7.811748571847999756e+00 2.179230326932999784e+00 5.626129434373999594e+00 2.050993519104999940e+00 3.902742046063000014e+00 3.931000115308000087e+00 1.914199497970000108e+00 6.231770142813999769e+00 5.868136031004000053e+00 7.719742369622999867e+00 5.881838028267000418e+00 6.056896432841999633e+00 5.839984742659000361e+00 3.211355553499999765e-02 4.025093553637000277e+00 5.937886392777000033e+00 2.026142831306999792e+00 5.856052780636000321e+00 4.036046975274000026e+00 1.898388748819000105e+00 5.983677733318000236e+00 5.859433417595999671e+00 3.889435839429999930e+00 4.011308600811999803e+00 6.055610379787999875e+00 6.005712900369999829e+00 6.002525128491999595e+00 4.173478650186000394e+00 6.202940737647000269e+00
7.963772148797000128e+00 7.899322626031000105e+00 7.942618944316000018e+00 7.924075428217999928e+00 7.880768970590000144e+00 4.010020696344000157e+00 7.792001376127999812e+00 3.924562884250000216e+00 7.874069767509999984e+00 6.837092713400000354e-02 3.745079112345000016e+00 3.955437930242999833e+00 4.014912040898000356e+00 3.578193760799999734e-02 7.837932496791999881e+00 3.993496441426000132e+00 7.908199940881000423e+00 3.955482298505999861e+00 3.882879791216999887e+00 3.881489820046999828e+00 7.905698163042999660e+00 4.040916019332000175e+00 3.944377796098999855e+00 3.842282628805000044e+00 2.192121985031000087e+00 2.061871300027999787e+00 1.934342637664000053e+00 2.082773503478000166e+00 1.920128020551000070e+00 6.000819964975000254e+00 6.066914425639000186e+00 2.129899876806999881e+00 2.044520745500999936e+00 6.126412195879000322e+00 5.932559439575999960e+00 1.828894196885999968e+00 6.040234908106000056e+00 5.893851333576000329e+00 5.734741927371000081e+00 2.108565419367999905e+00 6.050895246123999982e+00 1.861966554399999918e+00 2.049825461149000105e+00 5.956224463815999570e+00 5.816583417658000243e+00 5.953467324135999661e+00 1.870355621309000016e+00 6.149210916780000424e+00 1.970741942657999957e+00 2.427346125360000162e+00 7.965332068197000126e+00 7.941631235401000133e+00 2.044740331290999968e+00 2.195219176011999895e+00 2.060644915563000001e+00 1.157215447959999977e-01 1.839855360443999999e+00 2.247977895033999918e+00 2.286295787114000166e+00 3.863558637146999875e+00 2.871210782729999855e-01 1.869301305909000011e+00 5.962485447327000365e+00 2.193570865418999816e+00 6.560917971400000159e-02 5.899933758586000110e+00 1.978380564374000006e+00 6.092169614766000052e+00 7.891608665981999948e+00 9.455856762000000582e-02 6.079560556488999623e+00 2.037900842530000034e+00 2.066782990046999835e+00 4.085704949396999908e+00 1.972145281873999956e+00 2.095256142684000178e+00 6.030976588487999557e+00 3.807015296233999813e+00 1.128726151599999949e-01 6.220027149386000431e+00 5.943309721075999974e+00 1.797480003074999999e+00 4.046818733691999626e+00 5.841469690725999975e+00 6.143566114599999572e+00 1.695357947019999978e+00 1.552596961259999908e-01 4.049538441250000176e+00 2.000654085687000094e+00 1.668545957252000056e+00 5.852085075958999738e+00 7.761398237214000240e+00 2.222895422254000053e+00 5.514268276819000114e+00 2.109077893455999941e+00 3.806523307957999869e+00 3.897039839912999959e+00 1.954337237424000007e+00 6.365605760981000394e+00 5.866026770227000142e+00 7.750012159681999968e+00 5.884035752704999567e+00 6.136095337230999647e+00 5.895541585774999760e+00 7.279365235199999895e-02 4.022823356122000149e+00 5.936115698004000407e+00 2.010490876701000129e+00 5.836709701173999676e+00 3.956907872371000057e+00 1.869247139934999913e+00 6.033289268565999564e+00 5.771723448935000000e+00 3.926484720586000066e+00 3.956916172355000150e+00 6.031652949025000154e+00 6.014780513613000146e+00 6.043477387224999831e+00 4.075338401460999904e+00 6.294720061323999971e+00
7.969985286637999877e+00 7.914918713035000053e+00 7.958930906244000347e+00 7.916190360565999562e+00 7.890283424986000327e+00 4.039087192995999942e+00 7.752495076820999920e+00 3.928746468895000010e+00 7.868204743144000091e+00 9.775311980499999664e-02 3.693344352206000103e+00 3.971263113596999794e+00 4.048093227399999883e+00 7.581083633500000640e-02 7.823038776883000089e+00 4.025197314045000141e+00 7.929687293970999917e+00 3.967917232358999957e+00 3.871776341949999978e+00 3.875788919365000140e+00 7.909701427375999572e+00 4.078406978302999697e+00 3.954998387040999930e+00 3.822868908089999795e+00 2.165176672279999881e+00 2.073935890556000139e+00 1.942101516591999921e+00 2.069818172774999798e+00 1.921938975356999979e+00 6.028937038301999785e+00 6.047085249737000012e+00 2.111619388647000051e+00 2.108639348609000042e+00 6.103798907966000442e+00 5.977582025728000126e+00 1.848181941763999969e+00 6.013526949671000210e+00 5.873929266890000278e+00 5.704095275453999747e+00 2.109372265381999956e+00 6.057052279307000298e+00 1.837959440844000092e+00 2.027944150169000093e+00 5.947738684701000089e+00 5.821050515410999715e+00 5.891065361167999725e+00 1.838179132912999947e+00 6.179921917630999850e+00 1.898941217928999947e+00 2.472047690815999843e+00 7.963407055186999983e+00 1.462837338299999984e-02 2.081158221418000220e+00 2.288687638988000206e+00 2.080235992391000099e+00 2.019999777679999942e-01 1.819210492017999892e+00 2.325100321384999891e+00 2.310187587368000006e+00 3.922801921203999953e+00 9.864343200000000311e-02 1.845237459550000070e+00 5.923559691984999986e+00 2.225240671759999955e+00 7.972144460367999841e+00 5.874900309546999821e+00 1.996385844446999958e+00 6.120515638799999714e+00 7.865374486248000174e+00 2.136918583999999899e-02 6.090226688089000362e+00 2.053961355333000061e+00 2.076875289151999926e+00 4.053731546996999668e+00 1.960734562687000082e+00 2.086259704955999883e+00 6.125142817517000182e+00 3.864211957285000221e+00 7.052306985700000641e-02 6.307981372200999637e+00 5.902854757545999753e+00 1.828497436718000024e+00 3.999714401867000113e+00 5.819530457773000265e+00 6.242043495958999877e+00 1.605253738964000032e+00 1.003342230949999941e-01 4.060002374517000412e+00 2.032105362754000222e+00 1.591526864995999935e+00 5.892641027070999904e+00 7.750922064657999933e+00 2.263529495584000184e+00 5.447475228949000048e+00 2.142849024899999844e+00 3.805224728937000034e+00 3.934351024390999818e+00 2.027516814456999938e+00 6.474829690585999664e+00 5.883101915878000021e+00 7.842841462218999915e+00 5.876944916417000009e+00 6.230682898953999960e+00 6.019007423797000378e+00 5.347508369900000336e-02 4.001763748125999776e+00 5.948394596802000223e+00 1.975687980041999969e+00 5.856190287129999561e+00 3.892506684174999787e+00 1.847758792919999893e+00 6.101345990909000427e+00 5.666720751727999605e+00 4.016137790828000043e+00 3.930756789906999948e+00 5.958553096809000138e+00 6.002967626861000383e+00 6.092630249205000403e+00 3.936472904297000142e+00 6.329070333436000340e+00
7.973413206414999621e+00 7.935988618158000385e+00 7.975230490366000069e+00 7.908307442484000305e+00 7.904334436662000307e+00 4.068581008568999735e+00 7.715399726984999873e+00 3.930338774302000182e+00 7.864430739666000036e+00 1.279710995799999973e-01 3.642003928747000074e+00 3.990212515040000074e+00 4.087518286755000396e+00 1.162373440479999992e-01 7.811799154864999650e+00 4.061962489269999921e+00 7.956589394313000163e+00 3.980394391932000175e+00 3.865644226795000193e+00 3.871263849941999791e+00 7.915210936183999735e+00 4.115577666754999697e+00 3.966106243986000202e+00 3.805079226929999781e+00 2.137869177321999992e+00 2.084590867580999873e+00 1.942542457195999939e+00 2.031643293846999931e+00 1.938344323434000094e+00 6.055689471614000396e+00 6.032426855055000203e+00 2.065233401996999785e+00 2.122950850126999800e+00 6.079956414910999918e+00 6.031952931738000068e+00 1.868543604794000057e+00 5.986244899183000179e+00 5.863540291271999827e+00 5.743958666942000413e+00 2.103830694840000071e+00 6.056705547896999775e+00 1.813981761276999949e+00 2.003037993327000166e+00 5.932257274540000402e+00 5.830475802626000181e+00 5.869205930887999578e+00 1.837650283467999968e+00 6.174019360426999725e+00 1.800062063646999944e+00 2.430396742619000072e+00 7.956415498582000367e+00 5.313597843900000339e-02 2.097523326651999920e+00 2.378076351054000170e+00 2.092794285436000212e+00 2.158412519340000002e-01 1.816450394907000110e+00 2.388302810657000119e+00 2.263134572735999939e+00 3.997785926643000032e+00 7.943326406968999720e+00 1.818899560388000047e+00 5.844230526105000045e+00 2.241429703722999989e+00 7.973615990164000245e+00 5.859144479484999835e+00 2.011076552906999826e+00 6.123202472878999991e+00 7.875608736928000120e+00 3.678035410000000168e-03 6.084662959832000340e+00 2.071345378081999922e+00 2.076545236948000195e+00 4.101894685796000140e+00 1.962854803796999947e+00 2.057861817180000052e+00 6.227238092819000315e+00 3.949778357386000138e+00 7.425028844000000280e-03 6.346941148604000382e+00 5.855645157892999997e+00 1.886419157401000080e+00 4.015227371883000274e+00 5.813419982844999723e+00 6.350392976720000249e+00 1.524316809169000031e+00 1.313404720240000101e-01 3.993531104890999828e+00 2.060667263817999917e+00 1.540625539112000064e+00 5.946729176284000218e+00 7.793845737285000297e+00 2.319504326725000176e+00 5.428434331563000370e+00 2.126073314136000203e+00 3.898834400795000210e+00 3.942360005212000029e+00 2.097376804871999845e+00 6.524308897814999675e+00 5.879423701414999925e+00 7.880318814367000435e+00 5.820492436877000131e+00 6.308284105733999780e+00 6.170911557443999662e+00 2.259924762400000037e-02 3.971113240585999904e+00 5.978175166651999994e+00 1.935780051687000070e+00 5.910771687829000420e+00 3.898081394649000053e+00 1.829096208344000107e+00 6.162014777099999563e+00 5.560323166096999614e+00 4.032589720406999589e+00 3.979023656893000194e+00 5.851449599758000275e+00 5.963842471276000090e+00 6.120937810073000307e+00 3.873938926042999942e+00 6.288040208318999902e+00
7.975390242637000249e+00 7.959396874653999809e+00 7.989297445553000365e+00 7.899939054878999833e+00 7.921271322041000040e+00 4.098469570027999609e+00 7.679091213403999916e+00 3.929485834987000104e+00 7.862067917837999964e+00 1.572188704930000125e-01 3.592974730752999779e+00 4.013154983496000305e+00 4.130450751496000272e+00 1.556279003590000098e-01 7.802270070472999919e+00 4.100478131877999921e+00 7.987034774187000252e+00 3.993809850476000012e+00 3.863315982267999882e+00 3.868976073633000112e+00 7.920618384746999752e+00 4.151266862228999877e+00 3.977401334984000059e+00 3.789171297123000048e+00 2.103242265487000218e+00 2.082398857747000065e+00 1.942036349182999944e+00 1.973511651788999899e+00 1.954696448438999923e+00 6.073006798529999806e+00 6.025521294207999645e+00 2.009341336368000164e+00 2.103915938164000021e+00 6.071737182969999758e+00 6.084414447603999854e+00 1.881936672401999910e+00 5.961395678989999780e+00 5.859700351434000254e+00 5.827527963642999964e+00 2.083798078426000178e+00 6.054907839422000393e+00 1.796381983447000064e+00 1.975459826086999993e+00 5.918031102003999955e+00 5.840460579525999840e+00 5.895674285996999942e+00 1.867730166921000023e+00 6.130174814093000357e+00 1.692230262747000058e+00 2.320968313519999882e+00 7.949341826461999716e+00 4.674923360399999700e-02 2.073194491868000089e+00 2.424135655935999889e+00 2.096727435235000048e+00 1.726174612349999915e-01 1.828592624998000016e+00 2.423388659835000070e+00 2.161201929061999927e+00 4.055073077457000075e+00 7.941241111052000257e+00 1.802951073518999969e+00 5.735357411488999801e+00 2.251071883047000011e+00 6.977859160100000069e-02 5.885089038379000215e+00 2.021671852586000018e+00 6.099610540062999853e+00 7.917185906823999808e+00 3.528461210199999865e-02 6.067699108931999596e+00 2.077103988253000022e+00 2.063515381584999808e+00 4.191027343999000010e+00 1.982839459630000079e+00 2.023687950630999932e+00 6.305636063647999556e+00 3.984570866357000085e+00 7.987243281017000207e+00 6.314777557919000195e+00 5.833441628197999940e+00 1.944345651724000090e+00 4.054793168345000254e+00 5.838245026425999740e+00 6.409897110892000427e+00 1.491184484149999934e+00 2.476132745990000106e-01 3.923798185045999976e+00 2.082460053944999778e+00 1.531671843240000053e+00 5.994256465031999603e+00 7.886927619895000241e+00 2.380619755859000097e+00 5.470717422090999982e+00 2.066849087157000220e+00 3.983010985433999895e+00 3.888905995283999939e+00 2.131934735563000061e+00 6.512379659920999764e+00 5.829063251053000272e+00 7.835807556936999596e+00 5.723291217253000163e+00 6.333805755072999588e+00 6.305982154337000267e+00 2.553909309299999889e-02 3.981105462990000010e+00 6.028933148559000088e+00 1.904024213498999973e+00 5.983550196382999786e+00 3.920653088554999943e+00 1.808668094359999978e+00 6.188062721416000223e+00 5.480580850115999603e+00 3.991591470988999912e+00 4.064817791604999897e+00 5.738229106649000322e+00 5.908023299991000066e+00 6.119330070139000100e+00 3.922032077072000078e+00 6.210897288084000323e+00
7.980089368923000137e+00 7.982912092401000415e+00 8.001135597546999989e+00 7.891404270956000389e+00 7.939482427464000125e+00 4.127533970776999794e+00 7.643530350099999815e+00 3.927182100500000050e+00 7.862101276816000350e+00 1.834088947430000116e-01 3.548778645741000215e+00 4.039072803466000394e+00 4.173481195855999637e+00 1.932034960540000013e-01 7.793651873027999777e+00 4.138004468416999870e+00 1.130873025700000062e-02 4.008032523412000003e+00 3.863946452462999837e+00 3.869618858163000219e+00 7.925380682124999687e+00 4.186967574317000285e+00 3.988404286395999865e+00 3.775370977566999908e+00 2.057498868746999943e+00 2.050949961210999817e+00 1.946883862643999930e+00 1.913959657759999988e+00 1.954599059533999927e+00 6.070896479786999755e+00 6.030808532608999961e+00 1.961714431109000012e+00 2.079728916545999784e+00 6.080985337345000019e+00 6.128788685884999587e+00 1.904704237417000012e+00 5.942318506229000263e+00 5.855484845088000156e+00 5.897664978445999573e+00 2.050812248368000024e+00 6.062556553323999786e+00 1.792670067189999994e+00 1.946235868910000111e+00 5.916918785295999683e+00 5.844979489311000087e+00 5.948028122420000230e+00 1.914297369513999980e+00 6.047548625216999874e+00 1.585433710208999925e+00 2.187004352795999917e+00 7.977136118748999749e+00 1.355971473999999927e-03 2.005970029356999973e+00 2.409176606512000163e+00 2.086306033751999855e+00 1.379081579360000032e-01 1.845477566665000069e+00 2.413119552571000082e+00 2.049598880426000136e+00 4.056147370226000248e+00 3.062180794799999883e-02 1.809504868594000060e+00 5.637643521431000337e+00 2.252432762420999879e+00 1.733188224609999994e-01 5.970389569549999997e+00 2.030128730327000142e+00 6.060743549853000012e+00 7.915035838044000016e+00 7.307707478599999307e-02 6.059599204454999999e+00 2.051198835086999850e+00 2.039034891748999989e+00 4.203078119350999842e+00 2.018155168784999898e+00 2.000916405191000003e+00 6.338388652441000026e+00 3.995344880336999971e+00 4.754725393700000302e-02 6.216776563108999731e+00 5.862926208364999781e+00 1.980217352166999900e+00 4.080042777865999781e+00 5.895170358765000174e+00 6.383086162998999669e+00 1.532563426322000044e+00 3.583930003529999797e-01 3.894272489312000207e+00 2.098429560506000158e+00 1.566029972718000041e+00 6.032392748690999618e+00 7.985966120798000389e+00 2.419910686209000072e+00 5.561256698312999625e+00 2.005119465737000173e+00 3.997794540091999860e+00 3.835553847368000202e+00 2.131017707838999797e+00 6.466272813576000367e+00 5.754271533844000253e+00 7.769485665784999995e+00 5.637885443790000117e+00 6.289741544315999633e+00 6.388474017318999998e+00 5.413150414899999679e-02 4.060587008639999773e+00 6.095047742282000414e+00 1.885703859297999996e+00 6.052997510335000442e+00 3.920914758687000123e+00 1.772817438818000024e+00 6.165668200432000035e+00 5.460594646978999656e+00 3.964028818816999866e+00 4.116018302499999670e+00 5.651491746148000317e+00 5.858687560769999969e+00 6.108048140331000297e+00 4.022511444909000033e+00 6.159688033563999632e+00
7.989950999713999913e+00 8.007694398392999346e+00 8.013121540923000552e+00 7.884025899342000265e+00 7.958538498119000160e+00 4.154543828480999679e+00 7.610952430032000393e+00 3.924763622149999964e+00 7.867851177478000224e+00 2.058756278120000005e-01 3.511278679619000087e+00 4.064454985997000058e+00 4.214835175143000434e+00 2.291801071679999968e-01 7.787077853965000074e+00 4.172574406453000151e+00 3.731673404000000055e-02 4.021896539922999558e+00 3.867297569173000049e+00 3.872832801951000103e+00 7.930618913637999867e+00 4.224150533179000355e+00 3.999073424349000039e+00 3.763648432057999926e+00 2.007777618114999996e+00 1.989333076069000006e+00 1.959536848194999958e+00 1.880921536618999967e+00 1.940249497583999894e+00 6.056144355589999861e+00 6.047063342768000282e+00 1.939589584172999981e+00 2.078651005263000062e+00 6.090620944113999791e+00 6.158465960062000200e+00 1.949122863853999910e+00 5.924308323196999737e+00 5.858416999900000199e+00 5.932569768935000099e+00 2.014846777750999962e+00 6.080436830300000040e+00 1.803468030861999916e+00 1.923160181047999906e+00 5.930525933600000243e+00 5.844220677134999598e+00 5.997846245075000304e+00 1.968785293854999896e+00 5.931156804003999916e+00 1.488364532047999900e+00 2.066215335078999793e+00 2.756535848500000010e-02 7.975208705790000074e+00 1.918137480938000072e+00 2.361683317643000102e+00 2.055986762004000212e+00 1.108429010049999941e-01 1.854936142731000048e+00 2.346051440586999881e+00 1.969042754816000107e+00 3.988643684503999864e+00 1.059793838950000011e-01 1.835498978383000024e+00 5.589782566619000193e+00 2.235964328800000178e+00 1.864824042079999966e-01 6.099999793197000031e+00 2.042141984367999985e+00 6.023138930984999639e+00 7.883478742434999909e+00 1.044068350059999956e-01 6.080265954120999794e+00 1.988665269715000017e+00 2.014915428864000102e+00 4.132679777394000276e+00 2.059792205845000002e+00 2.000394965471000042e+00 6.326209733749999842e+00 3.993795729378000203e+00 1.224730374049999987e-01 6.092437547401000408e+00 5.943350884670000056e+00 1.980775840074999961e+00 4.065517531527000017e+00 5.967797787241999607e+00 6.304418202935999638e+00 1.608684923308000059e+00 3.161936948929999769e-01 3.896761558390000157e+00 2.105674667349000106e+00 1.629668643188000088e+00 6.069040223136999757e+00 7.168471372999999855e-03 2.422506397623000129e+00 5.672632876093000043e+00 1.983842921264999948e+00 3.969591004908000098e+00 3.848108232727000200e+00 2.124532071101000064e+00 6.418683710215000282e+00 5.714706912030999675e+00 7.749940042274999996e+00 5.615932547702000122e+00 6.194673957723000335e+00 6.409204284019000220e+00 7.418968250799999609e-02 4.162463535761999900e+00 6.158915700326000220e+00 1.883853555236999933e+00 6.107677750597000355e+00 3.916318329034000012e+00 1.718675366162000007e+00 6.115718403137000436e+00 5.514751870911999809e+00 3.951818362552999897e+00 4.101457918493999877e+00 5.614516599276999642e+00 5.834473386089999991e+00 6.116645158395000337e+00 4.058263028714000242e+00 6.168147333534999888e+00
8.003212353927999345e+00 4.770877340999999695e-03 8.026620166934000267e+00 7.878093417259999676e+00 7.977746657098999883e+00 4.178337268715000441e+00 7.583369799097000374e+00 3.922325535693000020e+00 7.881361077003999682e+00 2.255107052349999974e-01 3.482120217638999815e+00 4.085062097552000004e+00 4.254750912459999590e+00 2.639182712290000232e-01 7.783540951023000254e+00 4.202662156132999982e+00 6.482267702900000594e-02 4.033661882785000152e+00 3.872989451886999834e+00 3.877526960957999869e+00 7.937147185919999792e+00 4.261889521052999896e+00 4.009599638104999642e+00 3.752938088221999813e+00 1.966706786313999977e+00 1.916258844164999919e+00 1.975788893460999951e+00 1.902471126098999932e+00 1.919941276817999976e+00 6.049142220272000436e+00 6.071501093128000015e+00 1.948861357061000055e+00 2.085024967085999936e+00 6.082044873614999680e+00 6.168351803090000196e+00 2.004453464067999846e+00 5.894915119831999561e+00 5.871931407317999785e+00 5.937409041251999753e+00 1.983196515581999941e+00 6.096586145882000096e+00 1.820777601627999953e+00 1.921300419992999942e+00 5.949049855859000147e+00 5.844948470122999673e+00 6.026618330653000122e+00 2.023977102544999962e+00 5.821404274982000082e+00 1.420122817410000016e+00 1.978183236992000049e+00 8.049222875700000335e-02 7.967991348225999637e+00 1.830698029454000064e+00 2.319506458369000157e+00 2.012489008801999990e+00 4.171109410999999934e-02 1.854624853727000033e+00 2.223928185106000210e+00 1.925328060852000034e+00 3.900292880089000214e+00 8.168675509400000201e-02 1.856012412489999930e+00 5.601866112948999721e+00 2.191073586902999804e+00 8.046376479599999521e-02 6.231943135290999969e+00 2.068000689703000106e+00 5.998563496338999990e+00 7.905533341996999752e+00 1.299898970629999873e-01 6.130761732926999663e+00 1.906385414424000002e+00 1.999335657102000008e+00 4.070965940147000417e+00 2.094197062434000056e+00 2.018902311538000038e+00 6.282570046068999936e+00 3.962402992172000094e+00 8.756353798999999549e-02 5.986728788471999962e+00 6.046474521366000054e+00 1.945820011386000026e+00 4.011863945388999930e+00 6.031069080166999719e+00 6.214377650732999747e+00 1.681780495256000041e+00 1.064130151610000047e-01 3.912470023018999932e+00 2.094845048994999903e+00 1.708529279431999948e+00 6.109699172398999956e+00 7.992995359346999784e+00 2.393476520309000044e+00 5.781193908565000150e+00 2.019241343308999959e+00 3.932551845252000078e+00 3.915856464996000152e+00 2.126858372177999890e+00 6.369003344748000117e+00 5.752618477107000139e+00 7.794779203145999702e+00 5.671233913416999783e+00 6.089180159310999763e+00 6.374230525979999840e+00 5.832403179699999912e-02 4.225078382663999932e+00 6.199551615420999973e+00 1.910607924305000038e+00 6.141187239587999613e+00 3.919897303972000202e+00 1.674704191913999995e+00 6.069850200477000080e+00 5.633672536537999598e+00 3.953889879821999909e+00 4.056827414998999792e+00 5.634180110504999561e+00 5.837989212667999972e+00 6.144256616643000157e+00 3.999730697880000019e+00 6.210935188658999628e+00