-3.512130190430000221e+04
-3.512116642380000121e+04
-3.512051465060000191e+04
-3.512083821899999748e+04
-3.512065646109999943e+04
-3.512060951560000103e+04
-3.512079366470000241e+04
-3.512047983389999717e+04
-3.512026374539999961e+04
-3.512061071490000177e+04
-3.512019375749999745e+04
-3.512030380560000049e+04
-3.512012829700000293e+04
-3.512039665380000224e+04
-3.512011035619999893e+04
-3.511975685499999963e+04
-3.511924433339999814e+04
-3.511876539300000150e+04
-3.511817503040000156e+04
-3.511842995900000096e+04
-3.511837748190000275e+04
-3.511860927290000109e+04
-3.511912555840000277e+04
-3.511914114929999778e+04
-3.511874590729999909e+04
-3.511909423180000158e+04
-3.511939798219999648e+04
-3.511966344869999739e+04
-3.511930659330000344e+04
-3.511831078729999717e+04
-3.511777291349999723e+04
-3.511792598189999990e+04
-3.511886540760000207e+04
-3.511849900309999794e+04
-3.511919614400000137e+04
-3.511919215550000081e+04
-3.511878110449999804e+04
-3.511890994489999866e+04
-3.511980805710000277e+04
-3.512021211190000031e+04
-3.512013622929999838e+04
-3.511984376399999746e+04
-3.512024635870000202e+04
-3.512055907019999722e+04
-3.512051560939999763e+04
-3.512035001580000244e+04
-3.512088194610000210e+04
-3.512047197669999878e+04
-3.512029621169999882e+04
-3.512014248209999641e+04
-3.512113630499999999e+04
-3.512090396579999651e+04
-3.512126011899999867e+04
-3.512099099589999969e+04
-3.512112458879999758e+04
-3.512063222769999993e+04
-3.512131216280000081e+04
-3.512073432730000059e+04
-3.512115189059999830e+04
-3.512099726029999874e+04
-3.512069504009999946e+04
-3.512071641999999702e+04
-3.512063358120000339e+04
-3.511994053620000341e+04
-3.511935759780000080e+04
-3.511980110009999771e+04
-3.512081900989999849e+04
-3.511978936219999741e+04
-3.511904549509999924e+04
-3.511981682590000128e+04
-3.512039700879999873e+04
-3.511931753949999984e+04
-3.511850391300000047e+04
-3.511875306580000324e+04
-3.511898727340000187e+04
-3.511916658859999734e+04
-3.511894700249999732e+04
-3.511846281109999836e+04
-3.511698081249999814e+04
-3.511788478539999778e+04
-3.511807523499999661e+04
-3.511860882680000213e+04
-3.511808895779999875e+04
-3.511825280480000220e+04
-3.511766718579999724e+04
-3.511872284319999744e+04
-3.511876878549999674e+04
-3.511938863670000137e+04
-3.511849203259999922e+04
-3.511907717830000183e+04
-3.511911554810000234e+04
-3.511983688699999766e+04
-3.511992738649999956e+04
-3.511969858669999667e+04
-3.511971753660000104e+04
-3.511998422350000328e+04
-3.512009176560000196e+04
-3.511970634699999937e+04
-3.512024598990000231e+04
-3.512079539990000194e+04
-3.512066410319999704e+04
-3.512043883300000016e+04
-3.512097878009999840e+04
-3.512128831730000093e+04
-3.512081888320000144e+04
-3.512054911480000010e+04
-3.512121112980000180e+04
-3.512165392720000091e+04
-3.512100307420000172e+04
-3.512074711419999949e+04
-3.512113370469999791e+04
-3.512057691489999706e+04
-3.512081713000000309e+04
-3.512059486640000250e+04
-3.512071925539999938e+04
-3.512088128780000261e+04
-3.512013438860000315e+04
-3.512017498170000181e+04
-3.512033687279999867e+04
-3.511996632310000132e+04
-3.511961874230000103e+04
-3.511987914810000075e+04
-3.512020681299999706e+04
-3.511993061599999783e+04
-3.511869053169999825e+04
-3.511916620149999653e+04
-3.511930053790000238e+04
-3.511804449259999819e+04
-3.511910926830000244e+04
-3.511909588000000076e+04
-3.511932941030000075e+04
-3.511935260430000199e+04
-3.511767547470000136e+04
-3.511819678359999671e+04
-3.511920855660000234e+04
-3.511848973249999835e+04
-3.511789395089999744e+04
-3.511862351659999695e+04
-3.511946984309999971e+04
-3.511905153689999861e+04
-3.511827904549999948e+04
-3.511898788179999974e+04
-3.512014579349999985e+04
-3.511946516500000143e+04
-3.511923357569999644e+04
-3.512014708889999747e+04
-3.512031002949999674e+04
-3.512004930790000071e+04
-3.512001057069999661e+04
-3.512053933210000105e+04
-3.512033648389999871e+04
-3.512055974750000314e+04
-3.512102328660000057e+04
-3.512108651819999795e+04
-3.512056003839999903e+04
-3.512076659210000071e+04
-3.512115853069999866e+04
-3.512130752190000203e+04
-3.512119517220000125e+04
-3.512090933689999656e+04
-3.512108718100000260e+04
-3.512120570910000242e+04
-3.512090504649999639e+04
-3.512046578739999677e+04
-3.512113808340000105e+04
-3.512119117269999697e+04
-3.512071928389999812e+04
-3.512046994770000310e+04
-3.512050870449999638e+04
-3.512033818590000010e+04
-3.512025988009999855e+04
-3.511994905930000095e+04
-3.511954650519999996e+04
-3.512009473189999699e+04
-3.511967050790000212e+04
-3.511961591700000281e+04
-3.511895771609999792e+04
-3.511890608610000345e+04
-3.511834915619999811e+04
-3.511821156499999779e+04
-3.511887126030000218e+04
-3.511860625180000352e+04
-3.511879571820000274e+04
-3.511878484059999755e+04
-3.511799418960000185e+04
-3.511816589989999920e+04
-3.511804816669999855e+04
-3.511774657109999680e+04
-3.511775524060000316e+04
-3.511794300169999769e+04
-3.511847963249999884e+04
-3.511871754900000087e+04
-3.511825205879999703e+04
-3.511750741240000207e+04
-3.511847038839999732e+04
-3.511989621110000007e+04
-3.511918255540000246e+04
-3.511960377020000305e+04
-3.511937987820000126e+04
-3.511924139489999652e+04
-3.511958391909999773e+04
-3.511939533439999650e+04
-3.512010483499999827e+04
-3.512061638549999770e+04
-3.512029081549999682e+04
-3.511968087250000099e+04
-3.512020046030000231e+04
-3.512069875999999931e+04
-3.512088223770000332e+04
-3.512077362030000222e+04
-3.512084957990000112e+04
-3.512106538000000000e+04
-3.512090976290000253e+04
-3.512102074249999714e+04
-3.512112487620000320e+04
-3.512124576009999873e+04
-3.512093692049999663e+04
-3.512026612339999701e+04
-3.512054515250000259e+04
-3.512024566960000084e+04
-3.512010851030000049e+04
-3.512049325649999810e+04
-3.512091636260000087e+04
-3.512036035709999851e+04
-3.512012051719999727e+04
-3.511962780159999966e+04
-3.511929161580000073e+04
-3.511948687039999641e+04
-3.511899072480000177e+04
-3.511903504360000079e+04
-3.511925866749999841e+04
-3.511922142129999702e+04
-3.511826073660000111e+04
-3.511763223049999942e+04
