-9.503624535689999542e-01 1.350434840279000070e+00 -8.872207637610000086e-01 -1.148725303496999972e+00 1.498146673176000032e+00 4.762248697559999799e-01 -8.308188894260000179e-01 -1.064037083497999969e+00 -1.035479716530999905e+00 -1.023598605062999933e+00 -1.258636895863999960e+00 6.335556757400000460e-01 1.725293848488999915e+00 1.351570391529999915e+00 -6.937811110139999737e-01 1.977492220905999964e+00 1.577375396067999924e+00 3.369988966829999821e-01 1.620199481800000063e+00 -9.756212885980000138e-01 -7.610745435669999948e-01 1.818204332092999920e+00 -1.255470468431000075e+00 4.168349078779999828e-01 -7.356730626740000112e-01 -1.196933413410000008e-01 4.122998061000000131e-02 -1.184916358606999953e+00 -1.581007300139999905e-01 -1.674554213770000077e-01 -3.543753373240000060e-01 -4.428490499830000093e-01 7.623597813619999997e-01 -3.661181793189999811e-01 -2.023106012600000073e-02 -8.601311579999999790e-03 -5.350311715909999988e-01 -4.035738052910000095e-01 3.197863313499999666e-02 -1.413877340233000046e+00 -5.660768708540000471e-01 1.294155422580000048e-01 -1.342903388814000065e+00 -4.163168515280000204e-01 8.539634996320000226e-01 -1.478206309294000098e+00 -2.729080756849999734e-01 8.461776465429999838e-01 2.746131836149999783e-01 2.333917123500000093e-02 4.323970347009999937e-01 6.752141899169999961e-01 1.004283353120000027e-01 -4.267119860199999892e-02 1.484554933770000085e-01 -4.689314353990000073e-01 7.267963939299999787e-02 3.467281956659999942e-01 6.968390933599999393e-02 -9.340379888199999703e-02 3.290717449370000214e+00 1.560225914170000061e-01 2.250716325849999866e-01 2.514943776119999974e-01 -7.003527606889999868e-01 1.095823843910000012e-01 1.503479463469999944e-01 7.165736652000000151e-02 8.903655171100000043e-02 3.781293098510000172e-01 5.888759415400000169e-02 3.348983859000000118e-02 1.589112704769999884e-01 3.991469671360000082e-01 2.928957594099999839e-02 2.815140704899999832e-02 1.367365775030000008e-01 -1.299023929686000001e+00 1.014028390011999958e+00 1.876765956489999942e-01 6.305211616299999378e-02 4.178614784690000139e-01 2.918720694840000185e-01 1.292936526360000116e-01 -4.961192280900000168e-02 1.259130967930000011e-01 1.397739121242999927e+00 -5.191690100189999546e-01 1.095924037480000002e-01 -6.556779774099999458e-02 6.648868944999999746e-03 -8.294220855939999915e-01 -1.260446196879999869e-01 -1.324805208369999876e-01 2.452405086499999942e-01 -3.001494080954000054e+00 -2.021694213980000043e+00 2.194234216510000113e-01 2.010464209339999919e-01 -3.344345823099999920e-02 -2.211091315373999944e+00 2.475776322630000026e-01 -6.224471361000000376e-03 2.917163908229999936e-01 7.979263609879999608e-01 1.098069113719999934e-01 7.281309296200000336e-02 -4.007321856999999932e-03 -1.827580259199999835e-02 5.127254147019999486e-01 -4.646767135200000065e-02 -8.656561902000000849e-03 1.000993446470000020e-01 -4.291940706510000147e-01 -1.919200573950000099e-01 3.064709504799999901e-02 9.883384035299999648e-02 -4.621593683200000274e-02 2.182163870447999976e+00 2.057321217549999970e-01
-6.784407074149999550e-01 7.408750610140000248e-01 -6.216225716700000126e-01 -1.224233963142000059e+00 1.061878460029999971e+00 1.271760429819999982e-01 -1.954767321729999896e-01 -4.662401033570000020e-01 -7.957870436030000105e-01 -5.826113592470000269e-01 -9.164220723499999499e-01 3.392362573969999739e-01 1.447682236169999914e+00 6.453465918040000027e-01 -7.146034095269999664e-01 2.251094103582000017e+00 1.257551312756999939e+00 2.333737998250000056e-01 1.195574688625000048e+00 -2.514332482339999841e-01 -7.263882797959999582e-01 1.600731503485000040e+00 -9.442766000529999593e-01 3.949440395339999799e-01 -2.913185958481999904e+00 -1.141602478940000054e-01 4.455719890209999812e-01 -7.836159067729999705e-01 -2.820219510309999733e-01 -3.107003207549999813e-01 -9.750165283299999652e-02 -1.254217822143999905e+00 2.266545930276000043e+00 -7.367519351939999517e-01 1.370314400195000060e+00 3.235944342029999921e-01 -3.372440304579999992e-01 1.756988118089999884e-01 -2.658059170270000160e-01 -4.336986975170000203e-01 -6.767991280539999988e-01 -6.660709325450000495e-01 -2.701740413579999944e-01 8.563872609289999716e-01 2.303338593647000110e+00 -5.310794668699999610e-01 -1.435201564330000068e-01 -3.385784612020000250e-01 -1.245885679699999943e-01 -1.302873504859999865e-01 -5.006264795839999726e-01 2.198863869079999978e-01 3.027347425879999832e-01 6.158704854400000317e-02 1.015669966479999936e-01 4.568125983110000177e-01 1.652293359850000032e-01 2.032324731540000040e-01 3.259062486999999859e-03 9.598060680929999533e-01 4.248776968940000121e-01 3.579372621269999999e-01 -1.778432248500000021e-02 -4.709277896399999969e-02 -1.150748265540000037e-01 9.859996525099999631e-02 3.325304555090000114e-01 1.313417645399999889e-01 1.113785945290000079e+00 -9.071929310149999814e-01 -1.655798265250000012e-01 4.281920457099999688e-02 6.307658475600000370e-02 -6.092681596740000538e-01 -2.094409146499999833e-02 -1.702276559189999927e-01 5.715817355760000051e-01 -2.852200977358999801e+00 1.281193615039999956e-01 4.192478062100000180e-01 -1.190608112329999968e-01 6.522215195889999872e-01 -2.539802936441999837e+00 3.239039065709999887e-01 2.759142888999999935e-03 1.376346401040000056e-01 -1.003220408968999999e+00 2.115297167383999977e+00 2.637286390970000061e-01 4.096814438199999908e-02 3.996486235999999748e-01 -1.094591252799999997e-01 -4.833717417660000071e-01 2.015643826119999926e-01 5.608879716639999513e-01 -1.730539862729999934e+00 -1.733629066862999890e+00 7.455174711380000430e-01 2.818164691710000058e-01 4.047032810360000066e-01 3.522113054550000122e-01 5.003799161630000381e-01 3.606185789820000043e-01 9.803778263900000400e-01 1.084704054906999948e+00 -2.301113366070000055e-01 9.905602783899999930e-02 -2.382928035209999906e-01 2.006708187590000025e-01 -9.700516620669999979e-01 8.804845728099999769e-02 3.626547982500000211e-01 -2.822447125520000100e-01 1.677916422229999982e-01 -9.038709816059999902e-01 -4.181559585790000089e-01 3.086353300100000072e-02 2.322169700729999897e-01 -1.101364864356999984e+00 1.151365691799999952e-02
-5.076347844030000278e-01 4.091996102139999758e-01 -1.714898165650000084e-01 -9.849374915180000301e-01 5.080095396889999781e-01 -3.738864272779999776e-01 2.408954086310000076e-01 -3.068735578110000084e-01 -3.415262341359999732e-01 -8.755176776600000210e-02 -4.667501563750000027e-01 -3.656625560900000210e-02 1.143583103916999910e+00 3.161423190139999728e-01 -2.286243350930000084e-01 1.965156628806000061e+00 9.311190667300000001e-01 -2.398622979589999926e-01 8.503902676310000075e-01 -6.260867029300000441e-02 -3.744285883510000135e-01 1.076458319983000012e+00 -5.486320048180000075e-01 1.306529548229999893e-01 -1.849442552003000007e+00 -1.647394291450000048e-01 7.690667647399999918e-02 6.064615828649999596e-01 7.248621406420000524e-01 -3.879197075410000251e-01 -4.299502617109999814e-01 -1.183340523158000090e+00 1.891886692818000038e+00 -9.113474191639999722e-01 1.965413387858000016e+00 1.059556525489000034e+00 -1.864471187789999984e-01 4.277008537609999772e-01 -7.192574161560000290e-01 5.648605760160000377e-01 -5.825409001429999734e-01 -6.679741721499999896e-01 1.590824176170000104e-01 6.539097514949999690e-01 9.032043301840000371e-01 -4.906586128780000000e-01 -4.658654941700000190e-02 -8.793251400199999512e-01 -5.682585336000000042e-01 -5.168548683460000293e-01 -1.625694400730000044e-01 4.535880407289999972e-01 2.911829360879999995e-01 2.541683900610000046e-01 -2.289503843000000125e-03 1.116411008632000046e+00 1.637618659410000066e-01 -3.079887196399999985e-02 -3.597065567280000042e-01 9.499888741930000435e-01 -3.645592445911999935e+00 2.185112246289999949e-01 -1.985164218459999907e-01 -2.951376215439999728e-01 -1.205705119459000052e+00 -1.360431952900000019e-02 2.518901665719999738e-01 -7.295359276000000157e-03 -1.902643712190000003e-01 -1.672837270615999961e+00 -2.174116714930000027e-01 -1.014294791999999917e-02 -1.308041130619999881e-01 -1.394350102800000046e+00 -1.382207661110000096e-01 -3.203367219129999999e-01 7.026093143539999808e-01 9.354658607570000006e-01 -7.108643997219999955e-01 3.162220667080000158e-01 -2.745960261570000172e-01 7.400449395399999464e-01 -1.597990895916000076e+00 1.442570565640000080e-01 2.791778752210000158e-01 -3.017805935100000003e-02 -2.058396195192000011e+00 7.844864497760000166e-01 3.077341165270000012e-01 1.618852524480000055e-01 7.251196262160000128e-01 4.231573495570000176e-01 -4.704509164019999856e-01 6.493814390650000101e-01 2.261183628639999998e-01 9.352748324899999577e-02 9.781756103040000205e-01 8.585748943759999863e-01 1.178685810659999972e-01 5.474188512080000457e-01 2.580196448044000057e+00 4.779588687060000174e-01 4.980554883159999946e-01 1.409822948209999982e+00 -1.454065971419999936e-01 -2.621311261809999849e-01 1.538390846179999993e-01 -4.253683896500000117e-01 4.293631956389999949e-01 -1.461474576008999993e+00 1.747059301359999983e-01 5.613328463740000496e-01 -5.109930746940000157e-01 1.299341324575999934e+00 -7.512034904200000085e-01 -8.490531328789999721e-01 -1.294589812080000069e-01 3.333012725739999960e-01 -3.027651215900000192e+00 -1.972809041789999884e-01
-8.128659338470000106e-01 6.959903791839999743e-01 -8.663055929200000338e-02 -6.550238153649999839e-01 4.314069691629999759e-01 -4.838267594149999740e-01 2.692678094390000276e-01 -6.574816313489999509e-01 -6.854836828499999424e-02 2.147284295330000037e-01 -2.632523558520000195e-01 4.679618706400000272e-02 1.154331690854000003e+00 2.858370044669999999e-01 3.159373521569999732e-01 1.451474439854999909e+00 8.076214196569999615e-01 -4.901273338909999944e-01 8.548868197169999794e-01 -1.398179051479999935e-01 -9.630616680400000407e-02 3.496680442610000106e-01 -2.646462734480000134e-01 1.633427750500000136e-02 -1.065128451030000062e-01 -6.127707009299999952e-02 -4.752085595139999841e-01 -8.743868433500000259e-02 1.160990307023000101e+00 -2.783642220829999903e-01 -3.299106349370000135e-01 -1.483289648176000064e+00 -1.269026302772999992e+00 -8.314546525149999479e-01 1.263436379615000105e+00 1.297665150597999917e+00 -2.827951693349999851e-01 3.938621852600000112e-02 9.182534243619999703e-01 2.292126234009999874e-01 -7.508171405900000428e-01 -6.788481012000000536e-01 -1.075805674300000028e-02 -7.354098491139999805e-01 5.075212289170000224e-01 5.686545329699999735e-02 3.599929071640000089e-01 -7.520775424440000467e-01 -7.308501762869999974e-01 -1.133086370383000085e+00 2.022551668139999925e-01 5.674015852510000402e-01 9.726387627000000063e-03 3.032935671009999723e-01 -1.038029230880000015e-01 4.644512203199999828e-02 2.490800400000000026e-01 -1.495531834330000032e-01 -9.189156589739999603e-01 5.740490215060000123e-01 -2.862054518472000098e+00 -8.345389401800000495e-02 -5.109424352670000058e-01 -3.630625067689999819e-01 -8.720782322129999597e-01 -1.522782519379999866e-01 4.659549450799999742e-02 -2.433662316719999996e-01 -5.772085116590000009e-01 -3.523630443179999738e-01 -2.232678878559999913e-01 -1.578064505899999873e-02 -1.964363682799999955e-01 -7.963649422099999819e-02 -3.461147755499999895e-02 -4.490742201390000021e-01 5.309838319859999656e-01 2.618385689245999792e+00 -9.840180015020000281e-01 -2.485672657130000018e-01 -3.696407206110000065e-01 7.580508750009999908e-01 9.049998332830000436e-01 1.245230505799999922e-02 5.377035963559999576e-01 -1.307810695900000000e-02 -1.692694020059999915e-01 -1.616218631955000040e+00 1.557370045310000062e-01 2.702913896140000105e-01 6.509803150209999556e-01 5.987120861010000183e-01 -6.331745032299999909e-02 7.281731031350000549e-01 -4.376183130560000190e-01 1.659930936691000003e+00 1.366174242507000036e+00 5.595488067810000521e-01 -4.543549961100000201e-01 3.252331075800000137e-01 1.008863906209999994e+00 -1.852611960059999952e-01 2.309539879849999977e-01 1.109462061536000022e+00 -1.189898894356000048e+00 -3.487562245460000265e-01 1.887647824819999876e-01 -3.435818968950000163e-01 6.240163988760000224e-01 2.731341596140000050e-01 1.198935629230000049e-01 2.684008561930000258e-01 -3.262709307250000190e-01 1.096448318126999943e+00 4.686416374590000045e-01 -8.773711798440000376e-01 -4.035725496990000272e-01 1.201890807420000068e-01 -6.183371275789999455e-01 -1.059905274497999983e+00
-1.046864880286999977e+00 8.374832091320000282e-01 -4.034406532390000244e-01 -3.485762414160000211e-01 6.188022607830000466e-01 -1.039154702879999947e-01 1.944012395330000087e-01 -7.684757687459999875e-01 8.959975904299999350e-02 1.767751603449999875e-01 -7.244254685600000354e-02 4.727453793210000255e-01 1.156245328492000013e+00 4.841335354799999879e-02 4.578914242329999995e-01 8.622377380839999494e-01 7.771489987420000523e-01 -1.940905627420000112e-01 9.132107959059999613e-01 5.854492737099999816e-02 -4.090028864399999908e-02 -3.487835349310000055e-01 -8.501037184300000438e-02 1.873714331180000026e-01 -1.870705049999999976e-04 -4.663567773400000005e-02 -4.074944635659999981e-01 -1.411765606369999926e+00 7.188708105740000409e-01 -8.827362523800000305e-02 2.496756062659999942e-01 -1.520650757232999917e+00 -2.723880329761999786e+00 -1.512579094310000094e-01 3.502176906339999896e-01 -6.897715215300000147e-02 -8.030773361500000151e-02 4.670174223810000247e-01 3.881733466981000191e+00 -6.546901568930000304e-01 -8.046200289499999547e-01 -4.849408825999999666e-03 -3.749835078880000006e-01 -8.798403955750000449e-01 3.594824259909999986e-01 1.062212696653999977e+00 8.328021589840000072e-01 -9.918724202199999951e-01 -4.622002362929999997e-01 -1.503803752300999941e+00 -1.574289967059999962e-01 -1.293964900069999868e-01 -3.389036227059999962e-01 -5.436145268099999706e-02 -1.279444712380000126e-01 -1.352145733830999896e+00 2.970445309699999981e-01 -2.318595162579999980e-01 -1.234567852090000084e+00 2.714528732490000262e-01 9.499991368979999740e-01 -5.734348027299999984e-02 -7.105732676779999979e-01 -2.759147335139999768e-01 1.252738185231000001e+00 1.002526440509999978e-01 -7.466868508000000515e-02 -4.701517852129999953e-01 6.993658646789999711e-01 1.073537203744000079e+00 -3.064151154409999744e-01 3.861030147600000295e-02 -1.748528788010000057e-01 1.512371176555000085e+00 2.378381688510000092e-01 -3.373394057860000239e-01 1.007975886860000003e-01 3.567675098149999946e-01 -3.884538950959999792e-01 -8.634234209790000447e-01 -1.639637395849999901e-01 4.480482181270000197e-01 1.079285768235999976e+00 2.358608487269999998e-01 1.973234520669999992e-01 1.090409108879999978e-01 1.587809024538000102e+00 -1.384862771956999916e+00 -7.408159573200000236e-02 4.221008518159999889e-01 1.843992836549999959e-01 8.758513693499999642e-01 2.935448114670000108e-01 7.362841546580000118e-01 -8.932584514329999781e-01 1.749576639862999938e+00 -6.422183197459999660e-01 -6.848642996300000063e-02 -1.083024434721999940e+00 -3.867572031479999950e-01 -1.085518862447000021e+00 -9.177566754560000373e-01 -3.091022379849999724e-01 4.496141762950000009e-01 -1.533150260960000066e-01 -2.500134480890000011e-01 2.647915917529999885e-01 -8.886759728000000191e-02 5.784640969769999641e-01 1.350254007837000003e+00 3.284091863400000200e-02 -1.446817216609999901e-01 -4.811797106299999655e-02 -1.561734103992999945e+00 1.360458928624999952e+00 -6.046797069910000433e-01 -4.954194161830000054e-01 -4.055903840380000180e-01 1.374527720419000065e+00 -1.357749791767999925e+00
-3.961658023690000086e-01 4.354417281119999927e-01 -5.601773485879999459e-01 -1.268035791079999974e-01 5.763146915090000544e-01 5.509479888499999728e-02 1.798515263930000052e-01 -5.476741516540000188e-01 2.607183269130000092e-01 -2.477360524359999983e-01 5.536245045380000507e-01 8.502331673680000312e-01 6.957364111370000215e-01 -2.966728979639999819e-01 3.411918936150000192e-01 3.000244920730000264e-01 6.835432380939999719e-01 1.951836087219999960e-01 8.056081601879999665e-01 4.845866401450000249e-01 -6.835787852399999309e-02 -4.352550941109999960e-01 1.964131309099999972e-02 4.211475751139999724e-01 -3.661848671099999786e-01 -6.082523377320000479e-01 -4.616711355099999831e-02 -1.012779887453999939e+00 1.637722004000000120e-02 -4.632078342989999764e-01 3.542084327000000199e-01 -4.195713918069999826e-01 -1.664018302259000048e+00 8.501232935300000459e-01 -1.404825852129999997e-01 -4.690148397330000107e-01 1.204797798229999967e-01 3.479885147560000114e-01 2.221556564166999870e+00 -1.475259586915000032e+00 -2.164976169660000060e-01 5.939173950230000054e-01 -2.266728645780000106e-01 8.445633890100000263e-02 7.210806031199999688e-02 1.285542455517999949e+00 7.999706220519999800e-01 -9.441268374240000538e-01 -1.265808765770000122e-01 -1.147438194770999953e+00 -5.704449577199999927e-02 -8.146617643529999730e-01 -7.032588920229999596e-01 -7.586491526469999469e-01 -1.365048464589999899e-01 -1.032086271555000101e+00 2.578405244199999946e-01 -4.742891207389999808e-01 -9.393880337090000365e-01 -2.933867584229999936e-01 2.388177658201999787e+00 1.757677674489999953e-01 -5.202571589129999508e-01 -9.135308019700000282e-02 1.697390593543000037e+00 7.152962170819999743e-01 -7.040274310100000377e-02 -4.528014238440000172e-01 6.530042205560000479e-01 8.651224930990000228e-01 -2.171099390479999947e-01 -1.802251949310000045e-01 -2.118036233810000057e-01 8.224686959089999583e-01 3.030377412749999944e-01 -9.930553993000000579e-02 -4.242224774569999801e-01 -1.036059630225999895e+00 7.646216302610000515e-01 -1.217282882247999964e+00 4.321530428309999783e-01 -2.344607463099999956e-02 3.850274991389999735e-01 5.338696095320000223e-01 -8.374741763530000327e-01 8.094986183060000062e-01 1.506103312448000109e+00 1.158114004299999958e-02 -1.230449542849999939e-01 7.254055523939999528e-01 -1.393921150230000017e-01 8.825907867159999975e-01 9.923231313899999462e-02 1.069661725890999948e+00 -7.516464622059999545e-01 -2.767767094119999993e-01 -1.156833013883999950e+00 -6.358943685689999459e-01 -1.060759232721999901e+00 -8.470080232109999940e-01 -1.496253311757999915e+00 -7.382902897319999491e-01 -8.986135603889999768e-01 -3.008783103420000216e-01 6.453010346159999688e-01 7.024128160370000096e-01 3.524331423070000135e-01 1.542267068110000083e-01 3.036089793960000116e-01 2.314213600870000109e-01 -4.187285138000000108e-03 -5.937839742749999594e-01 4.358087175900000054e-01 -9.747324286849999853e-01 6.521711502070000055e-01 -8.988108351899999626e-02 -2.968997810310000096e-01 -5.406218779150000486e-01 1.965985594384999979e+00 -6.242833932139999487e-01
7.198499145250000231e-01 -1.921971676000000084e-03 -4.554976796290000074e-01 5.249853562500000209e-02 3.123557449709999934e-01 -1.850985546849999996e-01 2.703950150519999762e-01 -2.700402548570000061e-01 5.602357442280000432e-01 -7.344266892170000505e-01 1.188150812104000087e+00 6.949798858660000134e-01 -4.132653343400000123e-02 -4.771204678839999769e-01 2.667836028319999775e-01 -2.486735215989999970e-01 5.510509558199999658e-01 2.153539557069999999e-01 6.710151818320000405e-01 7.015839903470000305e-01 -8.670793026400000492e-02 -9.337454287000000394e-03 -4.343166851599999934e-02 5.299630286780000477e-01 -5.818172879890000093e-01 -1.511468124635999999e+00 2.878747542310000074e-01 -7.194341607300000496e-02 -9.129984078459999486e-01 -1.030046513782999940e+00 6.604826680180000409e-01 4.246709340779999953e-01 -2.720271832250000243e-01 9.728341435580000196e-01 -3.930792772550000258e-01 4.900073361799999749e-01 3.428530856890000256e-01 -8.359736648399999914e-02 -8.646542278230000544e-01 -1.296725154980999939e+00 1.040955413163999976e+00 1.425347297602999941e+00 -1.683492661950000135e-01 1.397498548983999944e+00 -5.621481532340000253e-01 6.582667950560000536e-01 3.880119891300000123e-01 -9.560841060300000471e-01 4.378625157899999898e-02 -3.775860749000000127e-01 6.320018675920000550e-01 -6.943535610679999470e-01 -7.479845799669999629e-01 -1.085474514258000012e+00 -2.352248991810000078e-01 2.682656340769999925e-01 8.411314858299999420e-02 -7.585143562570000331e-01 -1.374994015980000039e-01 -9.682600653659999557e-01 1.778080984952999932e+00 3.969102742069999801e-01 2.024006311529999991e-01 -1.241077753420000013e-01 3.161722562550000060e-01 1.025212568399999968e+00 -3.981056124000000029e-02 -2.445826950059999949e-01 -8.883410856529999622e-01 4.023572639999999784e-02 1.564736183959999916e-01 -5.439907667569999772e-01 -2.075194958330000006e-01 -1.479754322970999958e+00 2.606100335179999949e-01 2.062223633949999968e-01 -7.972185758449999993e-01 -3.419229232429999987e-01 1.449265682946000000e+00 -1.136493137315000013e+00 9.017914490889999968e-01 -3.777985088920000067e-01 -2.535583595879999930e-01 5.582654310410000154e-01 -1.552146141014000058e+00 1.368864412957000010e+00 9.537819147000000178e-03 7.625296878909999521e-01 -8.991818185699999855e-02 7.444724740610000335e-01 -1.695010129800000043e-01 1.215670152409999982e-01 -3.892326315130000269e-01 8.052850349269999874e-01 -3.856573829599999753e-02 -1.292923317687999951e+00 5.595364355999999685e-03 -6.403828321219999786e-01 -5.663068934199999571e-01 -4.546085960749999821e-01 -3.482780285889999772e-01 2.112142750949999870e-01 -1.199617326882999935e+00 -9.325057396629999884e-01 4.586370420140000181e-01 1.284058868608999981e+00 2.785920486769999926e-01 2.343615259869999967e-01 -8.778748816799999966e-02 -4.612588418440000115e-01 -2.676882363209999727e-01 -8.540786839720000412e-01 1.026306324796999903e+00 3.532941143039999843e-01 -6.456415600599999527e-01 4.680724870540000082e-01 1.255090841389999989e-01 -1.699460136719999903e-01 9.737415884519999842e-01 4.844377134439999955e-01
9.998789778169999698e-01 5.607401944800000093e-02 -1.439904667770000035e-01 1.199242179009999965e-01 -2.466452151299999840e-02 -5.867051489429999656e-01 5.592236189739999697e-01 -7.611266363299999671e-02 1.078942212435000103e+00 -8.856167222730000343e-01 1.446336595211000109e+00 -2.430332191079999926e-01 -5.766979162180000396e-01 -4.296990813830000033e-01 2.952472753739999733e-01 -8.005630802159999782e-01 4.507236076960000060e-01 -1.790588318209999918e-01 5.032754976340000352e-01 4.761261515660000221e-01 -6.862794999000000618e-02 2.021020752840000101e-01 -1.862072484350000001e-01 4.117985238199999842e-01 -2.063411876479999962e-01 -1.577915228888999932e+00 3.993671147489999962e-01 1.291687607065000076e+00 -7.500327513150000236e-01 -7.231273122950000465e-01 5.100539441060000234e-01 1.325043690013000042e+00 1.349218127634999931e+00 -1.337181306799999948e-02 -7.891340773939999886e-01 1.154565821087000010e+00 9.187817016999999531e-02 3.417540297680000116e-01 -1.901550504145999909e+00 -2.277114510240000056e-01 1.033736580558000107e+00 1.454457275383000070e+00 4.623617569819999940e-01 1.470621104154000047e+00 -6.259739866939999509e-01 -1.132198774459999974e-01 1.803829440230000081e-01 -9.236694099990000462e-01 1.628083700890000096e-01 2.719927094230000231e-01 7.500502714740000521e-01 3.303508447799999997e-02 -3.246165847499999924e-01 -5.438615027750000053e-01 -3.463088123820000086e-01 2.172264858379999997e-01 -1.426351858849999876e-01 -9.571029184920000210e-01 5.792914183489999980e-01 -1.229517443980999936e+00 -2.449916962869999881e-01 3.567487089149999901e-01 8.824200263650000542e-01 -2.999322125930000138e-01 -1.623413228396000108e+00 7.328773734419999908e-01 4.570845986699999947e-02 1.592099276600000141e-02 -6.246053191099999458e-01 -1.405438353410000119e-01 4.956228186769999766e-01 -6.383478610130000064e-01 1.811320983999999829e-02 -1.523895537357000007e+00 1.066830151459999959e-01 3.895625703050000221e-01 -7.770272223799999933e-01 -1.386673489989999897e-01 3.971992876479999990e-01 -4.426478353700000201e-01 8.684744128029999732e-01 -6.083080824159999844e-01 -7.057497527770000278e-01 2.439485765040000087e-01 -8.420869305970000163e-01 5.420825579650000448e-01 -2.743811916713000176e+00 5.367438825660000301e-01 -1.402401156320000064e-01 4.680478670329999979e-01 -3.604953893500000006e-02 -1.079069265186999971e+00 -6.431149850130000178e-01 2.966222182050000100e-01 7.148511928990000097e-01 -7.257366233249999965e-01 1.206188836896000094e+00 -6.486153036300000563e-02 2.786338982399999900e-02 6.128763315980000348e-01 8.572833370160000133e-01 1.098312759681999928e+00 -8.731682024219999949e-01 -1.063880677111999962e+00 -1.584391055000000104e-01 3.444322538799999833e-01 -5.394614269700000186e-02 2.546520860789999730e-01 -2.762428122200000224e-01 -7.286024540699999330e-02 -3.415851788040000225e-01 -4.760455009439999996e-01 1.250261584505000023e+00 2.396085379010000072e-01 -1.224384781629000107e+00 8.395979352469999935e-01 4.406729736519999774e-01 3.650110008440000109e-01 -1.215704754047999936e+00 1.068851660503000067e+00
5.027768969270000055e-01 2.536417036040000128e-01 1.097483609360000029e-01 1.087270528679999959e-01 -2.395909958150000130e-01 -9.056449256840000128e-01 9.418181555200000332e-01 -1.025667660960000033e-01 1.474942499034999965e+00 -6.719454385659999751e-01 1.784003328243999986e+00 -1.256709406691999931e+00 -5.694977887219999646e-01 -3.447335208249999727e-01 4.464507310179999799e-01 -1.215140292038999981e+00 2.632198657939999742e-01 -6.295330810460000315e-01 3.687479653040000027e-01 1.868324459669999937e-01 3.890058832300000158e-02 -8.362289830400000679e-02 -1.762944286760000090e-01 1.496596026079999864e-01 4.646750225449999827e-01 -5.346635324540000012e-01 1.927333867069999929e-01 2.904601837416000087e+00 -2.101637240439999943e-01 4.060992575519999925e-01 3.493919515330000114e-01 1.613755652325999934e+00 5.069756186180000013e-01 -1.017019605902000023e+00 -1.043876823851999980e+00 5.717287733470000077e-01 -6.913763362089999642e-01 5.674578065130000404e-01 -1.613859973265000081e+00 4.435822800579999892e-01 -2.986365575859999955e-01 5.771784592119999502e-01 2.335086695868000106e+00 3.214769538980000174e-01 6.622748623400000201e-02 -6.049277691229999476e-01 1.045645318599999936e-02 1.152556890369999948e-01 4.621838092900000250e-01 5.652714360610000544e-01 -1.028946272170000037e-01 5.172362021569999468e-01 3.317366516999999820e-02 1.549428435400000137e-01 -2.434097935769999888e-01 -8.043793945810000512e-01 -1.868055553219999942e-01 -9.281387412579999996e-01 6.519554979760000535e-01 -4.136909892960000112e-01 -1.923865214349000041e+00 -1.068850640749999942e-01 9.782131930440000067e-01 -4.789008519269999931e-01 -2.145300218027999861e+00 2.242393566300000113e-02 2.275391394550000113e-01 2.487832790750000023e-01 1.048697389588999940e+00 -2.212263402000000032e-02 5.028499386629999846e-01 -3.409587410570000254e-01 1.460447303980000056e-01 2.740693543800000187e-01 -1.560782519899999998e-01 3.192104647930000261e-01 -5.187596417869999588e-01 -6.330264133140000027e-01 -2.192728365210999897e+00 3.701100636510000208e-01 3.724527718990000014e-01 -6.144109053070000437e-01 -6.857240058579999742e-01 -1.863904008479999874e-01 -1.661903232090000126e-01 -1.088691292739999983e-01 -3.038043679709999889e+00 1.773260339620000015e-01 -3.045525430930000055e-01 2.235429610930000088e-01 5.638568604500000109e-02 -1.383966891620999951e+00 -5.419922829300000133e-01 -8.805388593099999772e-02 9.830033641300000014e-01 -4.988355415699999990e-02 1.018736271220000100e+00 1.933725793380000058e-01 2.310067490000000060e-03 1.365462717326000108e+00 1.113872244106999920e+00 1.345782951706000041e+00 -1.302621446109999970e-01 -9.345108355350000284e-01 -6.278036848860000241e-01 -7.300851034949999985e-01 -4.201630951859999796e-01 4.656319225680000118e-01 -3.576529388310000224e-01 1.917855398570000036e-01 1.393127506459999887e-01 1.042609962090000064e-01 1.083479697045000023e+00 2.045454166439999999e-01 -4.566942718540000223e-01 9.578135256030000377e-01 4.650007953759999757e-01 3.722513935480000202e-01 -1.806747226201999901e+00 6.045581155279999841e-01