-4.909876607120962078e+00 8.730117979739213663e-01 9.325652780516026363e-02 8.730117979739213663e-01 -1.131703440037310315e+01 1.826612477520680455e-01 9.325652780516026363e-02 1.826612477520680455e-01 -4.193458644702023896e+00
-1.105554850808498468e+00 1.457053049071495021e+00 -1.175415451564940095e-01 1.457053049071495021e+00 7.272295713277213691e-01 1.442327757560917800e-01 -1.175415451564940095e-01 1.442327757560917800e-01 1.151718440829381906e+00
7.920172254966640679e+00 1.624692095897109390e+00 5.112487797235724107e-01 1.624692095897109390e+00 1.121512177836461532e+01 4.900331955674887274e-02 5.112487797235724107e-01 4.900331955674887274e-02 3.848452941948362849e+00
7.045308226538075758e+00 1.144441243659731322e+00 1.633005625802878669e+00 1.144441243659731322e+00 4.102266999297905059e+00 2.400857352291393687e-01 1.633005625802878669e+00 2.400857352291393687e-01 5.465510168029633853e+00
1.750102171786669658e-01 2.266517664479418548e-01 1.643606664216689550e+00 2.266517664479418548e-01 3.175058354397803928e-01 1.033948577690870785e+00 1.643606664216689550e+00 1.033948577690870785e+00 4.905766466005877291e+00
-4.317448601258913499e+00 -1.355759866576242700e-01 2.221306722222363472e+00 -1.355759866576242700e-01 -7.278949847303125553e-01 1.772099137414953507e+00 2.221306722222363472e+00 1.772099137414953507e+00 -2.100347558394105807e+00
-5.709860262904342676e+00 7.144425431861030074e-01 2.341932183715139892e+00 7.144425431861030074e-01 8.478305256896136177e-02 1.241258736639663462e+00 2.341932183715139892e+00 1.241258736639663462e+00 -5.932456786873796517e+00
-3.392759911492918778e+00 7.468257714872202913e-01 2.171954578654247126e+00 7.468257714872202913e-01 4.272942155245856632e+00 4.440395027861271382e-01 2.171954578654247126e+00 4.440395027861271382e-01 -2.474927575234653343e+00
1.594520448137389357e+00 -4.727903427720120955e-01 2.842911923502671190e+00 -4.727903427720120955e-01 3.216268518991790781e+00 -7.162693305089866680e-01 2.842911923502671190e+00 -7.162693305089866680e-01 -2.286407663822268788e+00
-1.679499527919379620e+00 -2.963418816249394627e-01 2.536323181727027531e+00 -2.963418816249394627e-01 -4.005636462724394775e+00 -6.098596779682511348e-01 2.536323181727027531e+00 -6.098596779682511348e-01 -7.475705561339325733e+00
-7.712522961188340354e+00 7.938189644258858424e-02 1.669146919430495535e+00 7.938189644258858424e-02 -7.345497723941713630e+00 -7.087908683646998442e-02 1.669146919430495535e+00 -7.087908683646998442e-02 -1.050346454252264472e+01
-1.033355669584872949e+01 2.449397710838261966e-01 8.345146323887915329e-01 2.449397710838261966e-01 -7.480337798523512660e+00 -2.167885688090785690e-01 8.345146323887915329e-01 -2.167885688090785690e-01 -1.249176318319643464e+01
-7.036507952201640492e+00 7.065780153387526408e-01 -4.004470667878253787e-01 7.065780153387526408e-01 -3.820110174431657679e+00 -1.288848369592866250e-01 -4.004470667878253787e-01 -1.288848369592866250e-01 -1.056253581687682974e+01
-8.805209567349884026e+00 9.226760838163217127e-01 -5.326288000694346936e-01 9.226760838163217127e-01 -3.535080613169699681e+00 -7.328612779023028212e-01 -5.326288000694346936e-01 -7.328612779023028212e-01 -8.513193122357145981e+00
-1.067766581486646871e+01 3.578792278178520303e-01 6.218985740016300667e-01 3.578792278178520303e-01 -6.376309857305330731e+00 -2.156635189699415367e+00 6.218985740016300667e-01 -2.156635189699415367e+00 -6.003124771830594675e+00
-7.918334671704213790e+00 -1.067045224697247052e+00 1.524743439348833496e+00 -1.067045224697247052e+00 -8.229318712881319442e+00 -2.326077139888429457e+00 1.524743439348833496e+00 -2.326077139888429457e+00 -8.015288727356672638e+00
-2.097365905021325805e+00 -2.539132251791891726e+00 2.462529780193865925e+00 -2.539132251791891726e+00 -7.670363869892505626e+00 -2.252289482680457144e+00 2.462529780193865925e+00 -2.252289482680457144e+00 -6.222635346346359064e+00
6.034697091980052441e+00 -4.117613080753852017e+00 1.829755529742435716e+00 -4.117613080753852017e+00 -3.427732414726324173e+00 -3.285051745497335141e+00 1.829755529742435716e+00 -3.285051745497335141e+00 5.957744184119390801e-02
1.208354871782967166e+01 -4.781305222540195743e+00 -1.225540253329930884e+00 -4.781305222540195743e+00 1.962853675702697531e+00 -2.832331677905790102e+00 -1.225540253329930884e+00 -2.832331677905790102e+00 8.619197265941455299e+00
4.708351048704522590e+00 -2.500566823747270018e+00 -2.662738199631486058e+00 -2.500566823747270018e+00 1.051653469605138058e+00 -1.488313617922053966e+00 -2.662738199631486058e+00 -1.488313617922053966e+00 1.053660802430760945e+01
-6.892562103789210859e+00 5.225842594739982250e-01 -4.620172240563565347e-01 5.225842594739982250e-01 8.086518336405634777e-01 -1.938675980007762423e+00 -4.620172240563565347e-01 -1.938675980007762423e+00 4.683712728547216209e+00
-1.124163934573462242e+01 3.707199067709027185e-01 1.571209342009784876e-02 3.707199067709027185e-01 -3.478591205355618943e+00 -3.336818937392485918e+00 1.571209342009784876e-02 -3.336818937392485918e+00 -3.704688442101870205e+00
-1.082344011151848484e+01 -1.172498542810373467e-01 -3.602031961201190291e-01 -1.172498542810373467e-01 -1.502172333672647575e+01 -3.300577658353147648e+00 -3.602031961201190291e-01 -3.300577658353147648e+00 -7.127915061995609314e+00
-6.649275137023265003e+00 1.667691365367900691e-01 1.877725987757562776e-01 1.667691365367900691e-01 -1.739508103650677029e+01 -1.354715389945774451e+00 1.877725987757562776e-01 -1.354715389945774451e+00 -4.768563414217935836e+00
2.773145126589915410e+00 9.726489200017339742e-01 1.564468332946443274e+00 9.726489200017339742e-01 -1.228665088718406295e+01 -4.433683529725061523e-01 1.564468332946443274e+00 -4.433683529725061523e-01 -7.238011562998907245e+00
1.177971276844013815e+00 8.379531981981162836e-02 1.587039658722082969e+00 8.379531981981162836e-02 -8.187443182094709115e+00 -1.450243958289432866e+00 1.587039658722082969e+00 -1.450243958289432866e+00 -5.388748043407195709e+00
-2.653606313087764512e+00 -1.264801491301797975e+00 1.726341867531399510e+00 -1.264801491301797975e+00 -9.072208471276871355e-01 -1.460212027242826505e+00 1.726341867531399510e+00 -1.460212027242826505e+00 -6.176776642327190814e+00
-4.036132591755341892e+00 -1.413019241015158967e+00 1.362492954509279652e+00 -1.413019241015158967e+00 -1.997184581843048479e+00 -1.726874614269923447e-01 1.362492954509279652e+00 -1.726874614269923447e-01 -1.262400092950716335e+01
-5.901743243043515719e+00 -2.409862858483801773e+00 1.026778288193771038e+00 -2.409862858483801773e+00 -2.358385440977960545e+00 5.484187780103834120e-01 1.026778288193771038e+00 5.484187780103834120e-01 -1.614492564209085401e+01
-7.176839428934816745e+00 -1.607854784129032044e+00 2.708118989155343215e+00 -1.607854784129032044e+00 -1.611699548494549328e+00 6.755849742720534401e-01 2.708118989155343215e+00 6.755849742720534401e-01 -1.457382566761807574e+01
-9.712181190493684113e+00 1.218031251485298672e+00 4.313881320926371110e+00 1.218031251485298672e+00 -3.238610204034825912e+00 2.031098159297034744e+00 4.313881320926371110e+00 2.031098159297034744e+00 -1.087973206663612125e+01
-1.150795534957660671e+01 3.358504775927791286e+00 4.523048340168445591e+00 3.358504775927791286e+00 -5.430167952214663529e+00 2.299847932380405080e+00 4.523048340168445591e+00 2.299847932380405080e+00 -4.082169109331974077e+00
-2.734494049003103555e+00 1.691691319130659732e+00 1.442943387515305487e+00 1.691691319130659732e+00 -6.377725904970805715e+00 2.473385545142186837e-01 1.442943387515305487e+00 2.473385545142186837e-01 -1.315512207583905857e+00
3.293153238479110456e+00 -1.103657248392306611e+00 -2.099179821448094341e+00 -1.103657248392306611e+00 -2.685010216556580342e+00 -1.056618338841590843e+00 -2.099179821448094341e+00 -1.056618338841590843e+00 -1.268123558848343047e+00
-8.394163083819416116e+00 -2.448764008512549495e+00 -3.969414084513893104e-01 -2.448764008512549495e+00 -3.541436070315302498e+00 -1.658906212090205168e+00 -3.969414084513893104e-01 -1.658906212090205168e+00 -1.332757461618962580e+01
-1.468400322167548566e+01 -3.272185615273014658e+00 -1.245730114690057233e+00 -3.272185615273014658e+00 -4.993505390289612045e+00 -1.185836827457501963e+00 -1.245730114690057233e+00 -1.185836827457501963e+00 -1.505822949269403566e+01
-8.153132582408336049e+00 -3.965289739024423277e+00 -4.033620640692400450e+00 -3.965289739024423277e+00 -6.649865375661372369e+00 -1.100696595910741982e+00 -4.033620640692400450e+00 -1.100696595910741982e+00 -9.276930403313450313e+00
-3.078148054423987645e+00 -3.364281189527521754e+00 -4.922235594766062761e+00 -3.364281189527521754e+00 -8.673354878002744073e+00 -1.756752731731419326e+00 -4.922235594766062761e+00 -1.756752731731419326e+00 -3.244659464183851316e+00
-5.743625352206338519e+00 -2.796479409133296290e+00 -2.996734262464851639e+00 -2.796479409133296290e+00 -3.554462242669697236e+00 -2.761723963471706789e+00 -2.996734262464851639e+00 -2.761723963471706789e+00 -2.484393050041411755e+00
-3.664864279987296136e+00 -2.684169058798729246e+00 -1.975591911602210260e+00 -2.684169058798729246e+00 2.603272108578034594e+00 -3.571198790331175932e+00 -1.975591911602210260e+00 -3.571198790331175932e+00 -4.205823103578617328e+00
1.035403615480131601e-01 -2.562507655336664136e+00 -1.741926318129373596e+00 -2.562507655336664136e+00 9.999210631589896536e+00 -3.001921550635111569e+00 -1.741926318129373596e+00 -3.001921550635111569e+00 -2.923355691911319276e+00
1.118352225413429046e+01 -3.185401800484394919e+00 -2.546389685270553649e+00 -3.185401800484394919e+00 4.237502577374869794e+00 -3.626420458765701738e-01 -2.546389685270553649e+00 -3.626420458765701738e-01 -1.717889334534498769e+00
8.894999046677247279e+00 -8.732907217529275457e-01 2.271656864749939109e-01 -8.732907217529275457e-01 6.669906404646045450e-01 1.419045383849869557e+00 2.271656864749939109e-01 1.419045383849869557e+00 -2.108486783274456933e+00
8.190980050465418216e+00 1.146565868076746986e+00 3.382656729152518249e+00 1.146565868076746986e+00 7.291775063512324628e+00 1.362801889039593206e+00 3.382656729152518249e+00 1.362801889039593206e+00 -2.422870047915953950e+00
9.472317282748626610e+00 2.522245601214207281e-02 9.866481768617015868e-01 2.522245601214207281e-02 1.806403968315876796e+01 5.246725786566291960e-01 9.866481768617015868e-01 5.246725786566291960e-01 -5.738908114262353255e-01
8.854204430344012167e+00 8.142120278214620699e-01 2.439623478289185132e-01 8.142120278214620699e-01 1.825877607822801707e+01 4.577834497841131722e-01 2.439623478289185132e-01 4.577834497841131722e-01 -1.923916300872352103e+00
-2.827863151741539571e+00 2.112492468308367677e+00 4.632483810223366194e-01 2.112492468308367677e+00 8.083075413406421106e+00 4.130080941380017134e-01 4.632483810223366194e-01 4.130080941380017134e-01 -5.738619821140894750e+00
-7.689211380691047815e+00 1.132523175610580912e+00 -2.633661727789244900e-01 1.132523175610580912e+00 -1.253245457949647479e+00 -9.424142021781115597e-01 -2.633661727789244900e-01 -9.424142021781115597e-01 -5.886772328966156209e+00
-3.905421864718215730e+00 1.518094690267444147e-01 -1.601416575104779028e-01 1.518094690267444147e-01 -2.129957691228331118e+00 -1.422616548179172602e+00 -1.601416575104779028e-01 -1.422616548179172602e+00 -7.231434270247432572e+00
3.648473263074021866e-01 -1.981384931689490758e-01 9.189542765060076945e-01 -1.981384931689490758e-01 -3.240879145510828230e-01 -6.349804876277448384e-01 9.189542765060076945e-01 -6.349804876277448384e-01 -4.845765414259501469e+00
-1.951590948830626004e+00 2.666080232706940709e-02 1.542437458948470841e+00 2.666080232706940709e-02 -4.257465195942907066e+00 -1.030773910743503219e+00 1.542437458948470841e+00 -1.030773910743503219e+00 -5.715261413617991337e+00
-2.736296822977750676e+00 5.326034012794047534e-01 2.147957880087611127e+00 5.326034012794047534e-01 -5.339077079811012538e+00 -7.599379336938633100e-01 2.147957880087611127e+00 -7.599379336938633100e-01 -7.582939682444346019e+00
-6.967941708245151133e+00 3.628196154744026125e-01 1.661273031404207456e+00 3.628196154744026125e-01 -1.123160972693616522e+01 -5.918628407539773262e-01 1.661273031404207456e+00 -5.918628407539773262e-01 -8.561513406030128337e+00
-7.609604808597492998e+00 -8.714666398595241059e-01 -2.164362451038333024e-01 -8.714666398595241059e-01 -1.334572822264112979e+01 -1.191405880031938702e+00 -2.164362451038333024e-01 -1.191405880031938702e+00 -6.578808195081626842e+00
-8.378922286383488682e+00 -1.993411497394417475e+00 -1.486228349166216933e+00 -1.993411497394417475e+00 -8.228152128436738266e+00 -1.292283160273014486e+00 -1.486228349166216933e+00 -1.292283160273014486e+00 -5.918082524867276817e+00
-5.665611213365987275e+00 -2.130609029507935848e+00 -1.059014580553984342e+00 -2.130609029507935848e+00 -1.429245346737639366e+00 -1.504119687988723308e+00 -1.059014580553984342e+00 -1.504119687988723308e+00 -3.871810479857017206e+00
-2.333937531906837837e+00 -8.004592978315518970e-01 -1.482215451557797659e+00 -8.004592978315518970e-01 -3.141133762978089994e+00 -1.210617270361557196e+00 -1.482215451557797659e+00 -1.210617270361557196e+00 -2.027226813405712758e+00
4.781982636730975678e+00 4.879168844169886610e-01 -1.162914485741394444e+00 4.879168844169886610e-01 5.848551325099947684e-01 -2.890682028525207170e-01 -1.162914485741394444e+00 -2.890682028525207170e-01 -1.652354667973739699e-01
3.727051196727975135e-01 7.835820635074701723e-01 -6.602104820876003588e-01 7.835820635074701723e-01 -6.869962315426455524e-01 -2.242070148661726159e-01 -6.602104820876003588e-01 -2.242070148661726159e-01 -2.500649465346767464e+00
-3.810695402259513642e+00 -1.150082860399200962e-01 -1.088797813812719228e+00 -1.150082860399200962e-01 -1.106507365602900528e+00 -5.085088623605145131e-01 -1.088797813812719228e+00 -5.085088623605145131e-01 -5.309116194824240687e+00
1.479751053418314255e+00 -3.594100634947729467e-01 -6.281795143633784884e-01 -3.594100634947729467e-01 2.522137439110999413e+00 -6.081247836543718366e-01 -6.281795143633784884e-01 -6.081247836543718366e-01 -6.919991847652160466e+00
2.745935924051954302e+00 -2.849900417617596271e-01 7.816918431611781237e-01 -2.849900417617596271e-01 2.286996948086715609e+00 -7.719524801670042402e-01 7.816918431611781237e-01 -7.719524801670042402e-01 -4.411866386590767242e+00
-1.930824007182982971e+00 1.908150745450352959e-01 1.658095723931960030e+00 1.908150745450352959e-01 -9.030388208729689836e+00 -1.503250511344098872e-01 1.658095723931960030e+00 -1.503250511344098872e-01 -2.632395967862303454e+00
-7.149751473492991671e+00 9.482457529651900918e-01 -5.659466904018585209e-01 9.482457529651900918e-01 -8.396034860846420145e+00 -5.307295831808302861e-02 -5.659466904018585209e-01 -5.307295831808302861e-02 -7.117718682169476452e+00
-5.926097396597793221e+00 1.183032745546863884e+00 -1.134439654332912939e+00 1.183032745546863884e+00 1.385234043113610758e+00 9.243404179831898881e-01 -1.134439654332912939e+00 9.243404179831898881e-01 -6.409965599076524079e+00
-4.799951744822527289e+00 5.804778937689150098e-01 2.454727087698483495e-02 5.804778937689150098e-01 4.190852314546027024e+00 9.652323455926284934e-01 2.454727087698483495e-02 9.652323455926284934e-01 -3.302384444478017045e+00
-3.873287428633768847e+00 -2.878032503868291903e-01 1.191534598369215381e+00 -2.878032503868291903e-01 -5.516914610841311628e+00 5.760499551272038055e-01 1.191534598369215381e+00 5.760499551272038055e-01 -3.814611605527724603e+00
-1.148530864813021912e+00 5.061005344771722925e-01 1.754164158726301936e+00 5.061005344771722925e-01 -5.980844578748202522e+00 7.597283137271697295e-02 1.754164158726301936e+00 7.597283137271697295e-02 1.943328226569952244e-01
2.868618418580877627e+00 1.408726451544188629e+00 1.012365672129778016e+00 1.408726451544188629e+00 -9.251418957175011615e-01 2.840619008549307226e-02 1.012365672129778016e+00 2.840619008549307226e-02 5.699026638765662511e+00
3.404668283341841128e+00 8.885229794069429143e-01 -3.133584761871552327e-01 8.885229794069429143e-01 4.612169267588871691e+00 1.274080144660474367e-01 -3.133584761871552327e-01 1.274080144660474367e-01 5.947256921821352904e+00
7.227815568789563550e+00 2.787703657140859215e-01 3.111238613387617424e-01 2.787703657140859215e-01 4.614296883147852135e+00 -2.775400954343644200e-01 3.111238613387617424e-01 -2.775400954343644200e-01 4.621134466574285504e+00
9.012387553882538427e+00 1.044627833850310994e+00 8.041204540637542086e-01 1.044627833850310994e+00 2.306913994740020346e+00 2.979798110662977284e-01 8.041204540637542086e-01 2.979798110662977284e-01 7.027938534491488198e+00
1.242642948829296268e+00 1.027323226888640750e+00 1.029720430881995163e+00 1.027323226888640750e+00 -6.433182683188953810e+00 -1.326078926290934386e-02 1.029720430881995163e+00 -1.326078926290934386e-02 4.451249779429285347e+00
-9.624312366614335090e+00 7.778061050488505046e-02 6.446773248567344572e-01 7.778061050488505046e-02 -6.947791597648686590e+00 -1.266664739098777748e+00 6.446773248567344572e-01 -1.266664739098777748e+00 -1.315529670106838411e+00
-1.225208774853668992e+01 -7.552691221596252724e-01 -7.432622060158887711e-01 -7.552691221596252724e-01 4.073097293622924830e+00 -1.654517782365517720e-01 -7.432622060158887711e-01 -1.654517782365517720e-01 -4.794984758969421668e-01
-1.396993522840528712e+01 -6.760372021328134862e-01 -1.368230904870617159e+00 -6.760372021328134862e-01 5.387588330866928565e+00 1.032237819802579448e+00 -1.368230904870617159e+00 1.032237819802579448e+00 2.653647755275099662e+00
-1.766364367632936805e+01 4.686432470591493371e-01 -1.848488669064414225e+00 4.686432470591493371e-01 -8.661198588136592491e+00 4.111463487537275197e-01 -1.848488669064414225e+00 4.111463487537275197e-01 -7.409281387633194882e+00
-1.764410495892976627e+01 2.302186694140015977e+00 -2.109332390949569813e+00 2.302186694140015977e+00 -1.224708617398234267e+01 1.733462029638808355e+00 -2.109332390949569813e+00 1.733462029638808355e+00 -2.430962592938679734e+01
-1.315992428315117913e+01 2.407190732156273327e+00 3.514791804864917935e-01 2.407190732156273327e+00 -3.268288841705199843e+00 1.011953363221836266e+00 3.514791804864917935e-01 1.011953363221836266e+00 -1.987008972334746915e+01
-1.024982170466340392e+01 2.696540894845989467e+00 3.174533536212452156e-01 2.696540894845989467e+00 2.259753811401080115e-01 2.040491830489711056e+00 3.174533536212452156e-01 2.040491830489711056e+00 -1.476855543509128132e+01
-4.970640227552236112e+00 9.255929987916852175e-01 9.347054558216696396e-01 9.255929987916852175e-01 -3.719217456404624311e+00 3.458068286936041069e+00 9.347054558216696396e-01 3.458068286936041069e+00 -6.683204275871109878e+00
-2.375256224445771586e-02 -1.374363378539360525e+00 3.760227591095741118e-01 -1.374363378539360525e+00 -1.417201301723618023e+01 2.164198456838136941e+00 3.760227591095741118e-01 2.164198456838136941e+00 -1.009047027584243494e+01
-1.419330948743313225e+00 -1.494747391377643231e+00 6.121509141410934607e-01 -1.494747391377643231e+00 -1.477375055300276330e+01 1.132504024013148314e+00 6.121509141410934607e-01 1.132504024013148314e+00 -1.704476425199896283e+01
-1.002056607825191925e+01 -1.592561669366554966e+00 4.804744079341873308e-01 -1.592561669366554966e+00 -1.015697334420524456e+01 8.471571528814899610e-01 4.804744079341873308e-01 8.471571528814899610e-01 -1.911096912239322876e+01
-8.059561846717711031e-01 -1.050420598315101151e+00 -1.115640886482747396e+00 -1.050420598315101151e+00 -2.450834466077630225e+00 6.691464203492074603e-01 -1.115640886482747396e+00 6.691464203492074603e-01 -1.240911398527976495e+01
3.973972939104431390e+00 1.003461548136295881e-03 -1.531569994864366402e+00 1.003461548136295881e-03 2.808608830208529472e+00 1.275315916930970017e+00 -1.531569994864366402e+00 1.275315916930970017e+00 -1.051787500770356409e+01
5.428505086667865243e+00 1.759841023439660201e+00 -1.796433088046992754e+00 1.759841023439660201e+00 -9.034323279836187215e-02 2.907393719826064871e+00 -1.796433088046992754e+00 2.907393719826064871e+00 -3.613866957572993699e-01
8.480995883758286613e-01 1.646064893076707447e+00 -1.736611227094520427e+00 1.646064893076707447e+00 -5.940078518146717279e+00 2.157467957829743543e+00 -1.736611227094520427e+00 2.157467957829743543e+00 1.304880243627451808e+00
-6.232060756823738501e-01 5.409675223095015140e-01 -5.628073076626720628e-01 5.409675223095015140e-01 -3.195547430985102189e+00 2.542423670261594548e+00 -5.628073076626720628e-01 2.542423670261594548e+00 -4.641277112261963822e+00
-4.176696727896980654e+00 -9.235814076244768245e-01 6.713065233161259471e-01 -9.235814076244768245e-01 2.607114854221183720e+00 3.888691244845360995e+00 6.713065233161259471e-01 3.888691244845360995e+00 -6.081830256395884149e+00
8.021998974979373642e+00 -1.685727328731805752e+00 2.869354083250762244e+00 -1.685727328731805752e+00 1.104883405736734581e+01 2.166873719601917880e+00 2.869354083250762244e+00 2.166873719601917880e+00 -4.157319392229052113e+00
4.731667055433403490e+00 -2.629828578775434078e+00 2.740054365074427345e+00 -2.629828578775434078e+00 6.419283337880016482e+00 8.613258868002922064e-01 2.740054365074427345e+00 8.613258868002922064e-01 -3.231773594660400484e+00
4.054756284455721449e+00 -2.532705888120181825e+00 1.360434300448333023e+00 -2.532705888120181825e+00 -6.555416220608495159e+00 1.041945255677845239e+00 1.360434300448333023e+00 1.041945255677845239e+00 -4.626707924433349106e+00
8.221366376434525947e+00 -9.327565349612603196e-01 9.799801794337447136e-01 -9.327565349612603196e-01 -1.075958697943112163e+01 7.627290804101858335e-01 9.799801794337447136e-01 7.627290804101858335e-01 -2.508749594800935512e+00
-1.307188211897620578e+00 -1.914551636333865714e+00 -9.810128530452284501e-01 -1.914551636333865714e+00 -6.821373457251227457e+00 4.146641998894882719e-01 -9.810128530452284501e-01 4.146641998894882719e-01 2.502017146028272965e+00
-7.160736038209178922e+00 -2.951111411183465982e+00 -1.621845299946016450e+00 -2.951111411183465982e+00 -3.288389449507929552e+00 -5.549555008406324985e-01 -1.621845299946016450e+00 -5.549555008406324985e-01 -1.732590220676784698e+00
-8.811552970358022208e+00 -3.129272978965940588e+00 1.710112673415253304e-01 -3.129272978965940588e+00 -2.028293204625107649e+00 -2.266541552427258743e+00 1.710112673415253304e-01 -2.266541552427258743e+00 -5.917905323977374010e+00
-6.043369354548702610e+00 -1.651063857865184836e+00 1.623665060086014078e+00 -1.651063857865184836e+00 -3.037018568486764991e+00 -3.140879007005412227e+00 1.623665060086014078e+00 -3.140879007005412227e+00 -5.382817517585303690e+00
-3.868465845385713031e+00 4.377450715301483553e-01 2.041080198720815364e+00 4.377450715301483553e-01 -8.707016920181647635e+00 -2.099554811197575255e+00 2.041080198720815364e+00 -2.099554811197575255e+00 -7.323356513696460013e+00
-4.782793718611125122e+00 1.743453768943081794e+00 2.534947797181162699e+00 1.743453768943081794e+00 -6.847654887364538645e+00 -8.694674278551991486e-01 2.534947797181162699e+00 -8.694674278551991486e-01 -7.710804226657092642e+00
-2.100093126371598284e+00 9.208920126166043607e-01 3.196328251960222744e+00 9.208920126166043607e-01 -4.804526119178853527e+00 -6.704818537333031570e-01 3.196328251960222744e+00 -6.704818537333031570e-01 -2.055144417863570272e+00
-1.147154632337129762e-02 6.029656500784439377e-01 1.943309147437679130e+00 6.029656500784439377e-01 -1.034836991281122565e+01 -2.808171365606712544e-01 1.943309147437679130e+00 -2.808171365606712544e-01 6.328599445660294087e+00
-1.714897816366482086e+00 6.938330510629483472e-01 1.576186546999775784e+00 6.938330510629483472e-01 -1.337773344547398580e+01 4.612929479887999396e-01 1.576186546999775784e+00 4.612929479887999396e-01 5.897436818922625612e+00
-2.998759768987229624e+00 1.657024112857839571e+00 7.280972944875109265e-01 1.657024112857839571e+00 -9.051790177781372293e+00 9.482677773398162646e-01 7.280972944875109265e-01 9.482677773398162646e-01 1.200607155369105783e+00
2.738775970689200090e-01 2.436071100822718716e+00 2.006714714335150751e-01 2.436071100822718716e+00 -3.343642401265967123e+00 8.228883701151188390e-01 2.006714714335150751e-01 8.228883701151188390e-01 -1.555672985693374422e+00
3.627390962031852517e+00 1.876887020556930574e+00 1.441018722261249163e+00 1.876887020556930574e+00 2.373032050698311579e+00 1.419079737095495508e-01 1.441018722261249163e+00 1.419079737095495508e-01 -1.796876465802482947e+00
4.654899147978234453e+00 5.597390021907593383e-01 2.461401784889529321e+00 5.597390021907593383e-01 1.994359288238489958e+00 -4.007661554824258898e-01 2.461401784889529321e+00 -4.007661554824258898e-01 -1.976992873725905930e+00
4.406838555402632807e+00 1.924621727562818296e-01 2.613169516183516450e+00 1.924621727562818296e-01 -4.111880510742566663e+00 -3.398983537383780118e-01 2.613169516183516450e+00 -3.398983537383780118e-01 -5.196045843996719427e+00
-2.595695560176593641e+00 -4.411794040132466788e-01 3.328583204095651560e+00 -4.411794040132466788e-01 -5.864706809365419105e+00 -5.882066165785235778e-01 3.328583204095651560e+00 -5.882066165785235778e-01 -5.020636239528769806e+00
-4.785740241696996300e+00 -9.523040703737413182e-01 4.213185250146531224e+00 -9.523040703737413182e-01 -3.776620688627167155e+00 -9.338547213032608596e-01 4.213185250146531224e+00 -9.338547213032608596e-01 1.450786226179744620e+00
1.111207647663402742e+00 -9.264661681651710223e-01 3.336082961233383770e+00 -9.264661681651710223e-01 1.735886246786602749e+00 -2.065141028763010311e+00 3.336082961233383770e+00 -2.065141028763010311e+00 1.465605033936115120e+01
1.333427488297412467e+01 -1.467242271305965462e-01 1.548037635156126024e+00 -1.467242271305965462e-01 6.851613942673957958e+00 -2.377769505237408154e+00 1.548037635156126024e+00 -2.377769505237408154e+00 1.768982562960342264e+01
4.681962101071617255e+00 1.430834227922135105e+00 1.052879483249306691e+00 1.430834227922135105e+00 3.813006883538782255e+00 -8.512007305818917180e-01 1.052879483249306691e+00 -8.512007305818917180e-01 4.361634387601483809e+00
-7.406656999293407928e+00 2.458488970146092356e+00 -6.330153352916646492e-01 2.458488970146092356e+00 -4.464718243119776275e+00 4.621557551783673778e-01 -6.330153352916646492e-01 4.621557551783673778e-01 -3.992866293016385182e+00
-1.045640131375335535e+01 2.621073415987169586e+00 -9.572014786056138869e-01 2.621073415987169586e+00 -9.229704715303157059e+00 6.856713305145355486e-01 -9.572014786056138869e-01 6.856713305145355486e-01 -3.856683864089605063e+00
-7.750757867711197235e+00 1.791361873445877606e+00 -7.896717172425204989e-01 1.791361873445877606e+00 -3.488627965073080706e+00 5.264193666006229400e-01 -7.896717172425204989e-01 5.264193666006229400e-01 -1.302155427239577890e+00
-4.227345106974971789e-01 -7.037210147642390667e-02 -9.498082346549092669e-01 -7.037210147642390667e-02 3.157907187911104696e+00 2.752159049049257566e-01 -9.498082346549092669e-01 2.752159049049257566e-01 -1.280292924500716856e+00
-3.767082271476777766e+00 -4.346756118140995273e-01 -7.438832054007947503e-02 -4.346756118140995273e-01 -2.096242020305083997e+00 1.531515047641225646e-01 -7.438832054007947503e-02 1.531515047641225646e-01 -7.287471225138739683e+00
-1.206097347070204151e+01 3.364366935632978062e-01 5.663193851010158708e-01 3.364366935632978062e-01 -1.373525409325304203e+01 1.674602374496649559e-01 5.663193851010158708e-01 1.674602374496649559e-01 -1.453898486580086313e+01
-1.480193249344083206e+01 -1.013284996692340040e-01 -8.502738384990000953e-02 -1.013284996692340040e-01 -1.839840867457548867e+01 1.438824954263008715e+00 -8.502738384990000953e-02 1.438824954263008715e+00 -1.482887540885613120e+01
-9.970181754461318491e+00 -1.102023281657789511e+00 -6.320282246091837308e-01 -1.102023281657789511e+00 -1.501869204437383942e+01 3.318059608008976369e+00 -6.320282246091837308e-01 3.318059608008976369e+00 -4.739490200032037137e+00
-4.511081024173432041e+00 -2.077386430639403425e+00 4.323157047773723560e-02 -2.077386430639403425e+00 -7.955467257023268957e+00 3.602021974234830282e+00 4.323157047773723560e-02 3.602021974234830282e+00 1.677471750451718480e+00
-1.517133306657028280e+00 -3.096501521652577527e+00 2.439553751540058657e-01 -3.096501521652577527e+00 -5.517748402898607907e+00 1.999365006820646551e+00 2.439553751540058657e-01 1.999365006820646551e+00 2.496715038171885670e+00
-1.268130839147585398e+00 -2.500222072602262813e+00 -1.029349869676835727e+00 -2.500222072602262813e+00 -8.252039954422466295e+00 1.964317718039799709e+00 -1.029349869676835727e+00 1.964317718039799709e+00 4.530710589247607167e+00
-1.420927542986521130e+00 -2.221163712712617144e+00 -2.855534580413730872e+00 -2.221163712712617144e+00 -9.357751106144883479e+00 1.176339681624544831e+00 -2.855534580413730872e+00 1.176339681624544831e+00 7.756825968336418242e+00
-4.862001523599239206e-01 -1.788250909603553707e+00 -2.051314558636605945e+00 -1.788250909603553707e+00 -9.181646908583912747e+00 6.873850961278991922e-02 -2.051314558636605945e+00 6.873850961278991922e-02 1.803602253663363353e+00
4.328094427022896262e+00 1.016170411858721423e-01 -1.767874318848877468e+00 1.016170411858721423e-01 -1.591092456775499153e+00 -1.298029468405954345e+00 -1.767874318848877468e+00 -1.298029468405954345e+00 5.378539251955094969e+00
9.766439278319641204e+00 1.707544059146886228e+00 -3.283986449080481318e+00 1.707544059146886228e+00 7.245612671208550459e+00 -2.259478685391887787e+00 -3.283986449080481318e+00 -2.259478685391887787e+00 9.184083890172457743e+00
-6.185229352603470454e-02 2.528831275859408478e+00 -3.067018598505825366e+00 2.528831275859408478e+00 -4.707130400179824647e+00 -2.231609097824921228e+00 -3.067018598505825366e+00 -2.231609097824921228e+00 -3.444636520195155871e+00
-9.945246660881871037e+00 3.465939611637014028e+00 -2.478523114494496138e+00 3.465939611637014028e+00 -1.284364519146496697e+01 -8.587650559191952748e-01 -2.478523114494496138e+00 -8.587650559191952748e-01 -1.233071641566472199e+00