7.955212407085793025e+00 -0.000000000000000000e+00 -0.000000000000000000e+00 -8.462951284703915111e-02 8.073680655903878289e+00 -0.000000000000000000e+00 4.230975645230091592e-02 -6.412963085053316470e-02 8.085010488426949138e+00
7.953222886233073829e+00 -0.000000000000000000e+00 -0.000000000000000000e+00 -8.462951284703915111e-02 8.071661507300705196e+00 -0.000000000000000000e+00 4.230975645230091592e-02 -6.412963085053316470e-02 8.082988506344088719e+00
7.950750388406516045e+00 -0.000000000000000000e+00 -0.000000000000000000e+00 -8.462951284703915111e-02 8.069152189277096099e+00 -0.000000000000000000e+00 4.230975645230091592e-02 -6.412963085053316470e-02 8.080475666982747995e+00
7.949754914215764856e+00 -0.000000000000000000e+00 -0.000000000000000000e+00 -8.462951284703915111e-02 8.068141890580678321e+00 -0.000000000000000000e+00 4.230975645230091592e-02 -6.412963085053316470e-02 8.079463950530492156e+00
7.949699643837918828e+00 -0.000000000000000000e+00 -0.000000000000000000e+00 -8.462951284703915111e-02 8.068085797122570568e+00 -0.000000000000000000e+00 4.230975645230091592e-02 -6.412963085053316470e-02 8.079407778355836456e+00
7.949714762201891993e+00 -0.000000000000000000e+00 -0.000000000000000000e+00 -8.462951284703915111e-02 8.068101140627248924e+00 -0.000000000000000000e+00 4.230975645230091592e-02 -6.412963085053316470e-02 8.079423143392391538e+00
7.950287786285393565e+00 -0.000000000000000000e+00 -0.000000000000000000e+00 -8.462951284703915111e-02 8.068682698129627795e+00 -0.000000000000000000e+00 4.230975645230091592e-02 -6.412963085053316470e-02 8.080005516997072590e+00
7.951869165312499987e+00 -0.000000000000000000e+00 -0.000000000000000000e+00 -8.462951284703915111e-02 8.070287626899173006e+00 -0.000000000000000000e+00 4.230975645230091592e-02 -6.412963085053316470e-02 8.081612697969655201e+00
7.954130349079444606e+00 -0.000000000000000000e+00 -0.000000000000000000e+00 -8.462951284703915111e-02 8.072582483995285330e+00 -0.000000000000000000e+00 4.230975645230091592e-02 -6.412963085053316470e-02 8.083910775449229646e+00
7.956554718461044118e+00 -0.000000000000000000e+00 -0.000000000000000000e+00 -8.462951284703915111e-02 8.075042956849063813e+00 -0.000000000000000000e+00 4.230975645230091592e-02 -6.412963085053316470e-02 8.086374701096129769e+00
7.958285457166391019e+00 -0.000000000000000000e+00 -0.000000000000000000e+00 -8.462951284703915111e-02 8.076799469547047750e+00 -0.000000000000000000e+00 4.230975645230091592e-02 -6.412963085053316470e-02 8.088133678715927033e+00
7.957997249568401266e+00 -0.000000000000000000e+00 -0.000000000000000000e+00 -8.462951284703915111e-02 8.076506969989761586e+00 -0.000000000000000000e+00 4.230975645230091592e-02 -6.412963085053316470e-02 8.087840768693006055e+00
7.955693426689899539e+00 -0.000000000000000000e+00 -0.000000000000000000e+00 -8.462951284703915111e-02 8.074168838804750337e+00 -0.000000000000000000e+00 4.230975645230091592e-02 -6.412963085053316470e-02 8.085499356397878756e+00
7.952982554796494519e+00 -0.000000000000000000e+00 -0.000000000000000000e+00 -8.462951284703915111e-02 8.071417596871727440e+00 -0.000000000000000000e+00 4.230975645230091592e-02 -6.412963085053316470e-02 8.082744253634080778e+00
7.950461336705385129e+00 -0.000000000000000000e+00 -0.000000000000000000e+00 -8.462951284703915111e-02 8.068858833045741363e+00 -0.000000000000000000e+00 4.230975645230091592e-02 -6.412963085053316470e-02 8.080181899083765273e+00
7.947481577895773697e+00 -0.000000000000000000e+00 -0.000000000000000000e+00 -8.462951284703915111e-02 8.065834699958562837e+00 -0.000000000000000000e+00 4.230975645230091592e-02 -6.412963085053316470e-02 8.077153522217013659e+00
7.944685166931757081e+00 -0.000000000000000000e+00 -0.000000000000000000e+00 -8.462951284703915111e-02 8.062996645114262506e+00 -0.000000000000000000e+00 4.230975645230091592e-02 -6.412963085053316470e-02 8.074311484717636489e+00
7.943796979913429368e+00 -0.000000000000000000e+00 -0.000000000000000000e+00 -8.462951284703915111e-02 8.062095231300071774e+00 -0.000000000000000000e+00 4.230975645230091592e-02 -6.412963085053316470e-02 8.073408805945728517e+00
7.944776814941204357e+00 -0.000000000000000000e+00 -0.000000000000000000e+00 -8.462951284703915111e-02 8.063089657936851395e+00 -0.000000000000000000e+00 4.230975645230091592e-02 -6.412963085053316470e-02 8.074404628065476430e+00
7.945577107521479832e+00 -0.000000000000000000e+00 -0.000000000000000000e+00 -8.462951284703915111e-02 8.063901868395523920e+00 -0.000000000000000000e+00 4.230975645230091592e-02 -6.412963085053316470e-02 8.075217978302587696e+00
7.945743736561312609e+00 -0.000000000000000000e+00 -0.000000000000000000e+00 -8.462951284703915111e-02 8.064070978859072980e+00 -0.000000000000000000e+00 4.230975645230091592e-02 -6.412963085053316470e-02 8.075387326079770389e+00
7.948596815205132060e+00 -0.000000000000000000e+00 -0.000000000000000000e+00 -8.462951284703915111e-02 8.066966545272320488e+00 -0.000000000000000000e+00 4.230975645230091592e-02 -6.412963085053316470e-02 8.078286955854627749e+00
7.957805757292688575e+00 -0.000000000000000000e+00 -0.000000000000000000e+00 -8.462951284703915111e-02 8.076312626029466202e+00 -0.000000000000000000e+00 4.230975645230091592e-02 -6.412963085053316470e-02 8.087646152009277500e+00
7.973984000194850097e+00 -0.000000000000000000e+00 -0.000000000000000000e+00 -8.462951284703915111e-02 8.092731793749791791e+00 -0.000000000000000000e+00 4.230975645230091592e-02 -6.412963085053316470e-02 8.104088360821972259e+00
7.993917896290341218e+00 -0.000000000000000000e+00 -0.000000000000000000e+00 -8.462951284703915111e-02 8.112962543486505140e+00 -0.000000000000000000e+00 4.230975645230091592e-02 -6.412963085053316470e-02 8.124347500460263660e+00
8.012980035197928785e+00 -0.000000000000000000e+00 -0.000000000000000000e+00 -8.462951284703915111e-02 8.132308553911041571e+00 -0.000000000000000000e+00 4.230975645230091592e-02 -6.412963085053316470e-02 8.143720659228527836e+00
8.026532813947055089e+00 -0.000000000000000000e+00 -0.000000000000000000e+00 -8.462951284703915111e-02 8.146063159321391467e+00 -0.000000000000000000e+00 4.230975645230091592e-02 -6.412963085053316470e-02 8.157494566539769565e+00
8.032679892958617174e+00 -0.000000000000000000e+00 -0.000000000000000000e+00 -8.462951284703915111e-02 8.152301780035012158e+00 -0.000000000000000000e+00 4.230975645230091592e-02 -6.412963085053316470e-02 8.163741941936995872e+00
8.031170959063492987e+00 -0.000000000000000000e+00 -0.000000000000000000e+00 -8.462951284703915111e-02 8.150770375243238774e+00 -0.000000000000000000e+00 4.230975645230091592e-02 -6.412963085053316470e-02 8.162208388118592950e+00
8.021792075142174738e+00 -0.000000000000000000e+00 -0.000000000000000000e+00 -8.462951284703915111e-02 8.141251821895899354e+00 -0.000000000000000000e+00 4.230975645230091592e-02 -6.412963085053316470e-02 8.152676477342142292e+00
8.003902163638892731e+00 -0.000000000000000000e+00 -0.000000000000000000e+00 -8.462951284703915111e-02 8.123095495571181601e+00 -0.000000000000000000e+00 4.230975645230091592e-02 -6.412963085053316470e-02 8.134494672163086193e+00
7.979256548509474634e+00 -0.000000000000000000e+00 -0.000000000000000000e+00 -8.462951284703915111e-02 8.098082860340442224e+00 -0.000000000000000000e+00 4.230975645230091592e-02 -6.412963085053316470e-02 8.109446936588396326e+00
7.952999427948366673e+00 -0.000000000000000000e+00 -0.000000000000000000e+00 -8.462951284703915111e-02 8.071434721296153469e+00 -0.000000000000000000e+00 4.230975645230091592e-02 -6.412963085053316470e-02 8.082761402090367753e+00
7.930931388436648355e+00 -0.000000000000000000e+00 -0.000000000000000000e+00 -8.462951284703915111e-02 8.049038046688156811e+00 -0.000000000000000000e+00 4.230975645230091592e-02 -6.412963085053316470e-02 8.060333298127288160e+00
7.916798950875215013e+00 -0.000000000000000000e+00 -0.000000000000000000e+00 -8.462951284703915111e-02 8.034695150242189499e+00 -0.000000000000000000e+00 4.230975645230091592e-02 -6.412963085053316470e-02 8.045970274230180408e+00
7.911563559085705855e+00 -0.000000000000000000e+00 -0.000000000000000000e+00 -8.462951284703915111e-02 8.029381793508468590e+00 -0.000000000000000000e+00 4.230975645230091592e-02 -6.412963085053316470e-02 8.040649461238382756e+00
7.915034005055773925e+00 -0.000000000000000000e+00 -0.000000000000000000e+00 -8.462951284703915111e-02 8.032903921022043647e+00 -0.000000000000000000e+00 4.230975645230091592e-02 -6.412963085053316470e-02 8.044176531369503280e+00
7.925845919220140701e+00 -0.000000000000000000e+00 -0.000000000000000000e+00 -8.462951284703915111e-02 8.043876845159587674e+00 -0.000000000000000000e+00 4.230975645230091592e-02 -6.412963085053316470e-02 8.055164853860411256e+00
7.941227268437462961e+00 -0.000000000000000000e+00 -0.000000000000000000e+00 -8.462951284703915111e-02 8.059487251931386709e+00 -0.000000000000000000e+00 4.230975645230091592e-02 -6.412963085053316470e-02 8.070797166788111099e+00
7.957747490569089699e+00 -0.000000000000000000e+00 -0.000000000000000000e+00 -8.462951284703915111e-02 8.076253491602860990e+00 -0.000000000000000000e+00 4.230975645230091592e-02 -6.412963085053316470e-02 8.087586934599150013e+00
7.972899589430046063e+00 -0.000000000000000000e+00 -0.000000000000000000e+00 -8.462951284703915111e-02 8.091631234044944776e+00 -0.000000000000000000e+00 4.230975645230091592e-02 -6.412963085053316470e-02 8.102986256696013356e+00
7.984577514615391891e+00 -0.000000000000000000e+00 -0.000000000000000000e+00 -8.462951284703915111e-02 8.103483065756233117e+00 -0.000000000000000000e+00 4.230975645230091592e-02 -6.412963085053316470e-02 8.114854720136564836e+00
7.990575482025284337e+00 -0.000000000000000000e+00 -0.000000000000000000e+00 -8.462951284703915111e-02 8.109570354312966245e+00 -0.000000000000000000e+00 4.230975645230091592e-02 -6.412963085053316470e-02 8.120950551013127239e+00
7.989697021907965713e+00 -0.000000000000000000e+00 -0.000000000000000000e+00 -8.462951284703915111e-02 8.108678812252950507e+00 -0.000000000000000000e+00 4.230975645230091592e-02 -6.412963085053316470e-02 8.120057757848314850e+00
7.982927793616682699e+00 -0.000000000000000000e+00 -0.000000000000000000e+00 -8.462951284703915111e-02 8.101808777272941242e+00 -0.000000000000000000e+00 4.230975645230091592e-02 -6.412963085053316470e-02 8.113178082116798251e+00
7.972808746522964007e+00 -0.000000000000000000e+00 -0.000000000000000000e+00 -8.462951284703915111e-02 8.091539038314651933e+00 -0.000000000000000000e+00 4.230975645230091592e-02 -6.412963085053316470e-02 8.102893931587466625e+00
7.961911787326143575e+00 -0.000000000000000000e+00 -0.000000000000000000e+00 -8.462951284703915111e-02 8.080479802661942657e+00 -0.000000000000000000e+00 4.230975645230091592e-02 -6.412963085053316470e-02 8.091819176459091878e+00
7.952417697760981952e+00 -0.000000000000000000e+00 -0.000000000000000000e+00 -8.462951284703915111e-02 8.070844328039635585e+00 -0.000000000000000000e+00 4.230975645230091592e-02 -6.412963085053316470e-02 8.082170180331619491e+00
7.945573722831962726e+00 -0.000000000000000000e+00 -0.000000000000000000e+00 -8.462951284703915111e-02 8.063898433302297164e+00 -0.000000000000000000e+00 4.230975645230091592e-02 -6.412963085053316470e-02 8.075214538389388963e+00
7.941188775820037904e+00 -0.000000000000000000e+00 -0.000000000000000000e+00 -8.462951284703915111e-02 8.059448186085260701e+00 -0.000000000000000000e+00 4.230975645230091592e-02 -6.412963085053316470e-02 8.070758046120300122e+00
7.938090246694104124e+00 -0.000000000000000000e+00 -0.000000000000000000e+00 -8.462951284703915111e-02 8.056303513965939800e+00 -0.000000000000000000e+00 4.230975645230091592e-02 -6.412963085053316470e-02 8.067608961068380324e+00
7.935583237141205615e+00 -0.000000000000000000e+00 -0.000000000000000000e+00 -8.462951284703915111e-02 8.053759170270947010e+00 -0.000000000000000000e+00 4.230975645230091592e-02 -6.412963085053316470e-02 8.065061046883942097e+00
7.933177727819042957e+00 -0.000000000000000000e+00 -0.000000000000000000e+00 -8.462951284703915111e-02 8.051317838337990196e+00 -0.000000000000000000e+00 4.230975645230091592e-02 -6.412963085053316470e-02 8.062616289018704308e+00
7.930470235355184805e+00 -0.000000000000000000e+00 -0.000000000000000000e+00 -8.462951284703915111e-02 8.048570026159223900e+00 -0.000000000000000000e+00 4.230975645230091592e-02 -6.412963085053316470e-02 8.059864620823136150e+00
7.927902158829805757e+00 -0.000000000000000000e+00 -0.000000000000000000e+00 -8.462951284703915111e-02 8.045963706088988587e+00 -0.000000000000000000e+00 4.230975645230091592e-02 -6.412963085053316470e-02 8.057254643291953400e+00
7.927215255678827788e+00 -0.000000000000000000e+00 -0.000000000000000000e+00 -8.462951284703915111e-02 8.045266573642891217e+00 -0.000000000000000000e+00 4.230975645230091592e-02 -6.412963085053316470e-02 8.056556532557490158e+00
7.930458599416163601e+00 -0.000000000000000000e+00 -0.000000000000000000e+00 -8.462951284703915111e-02 8.048558216940202570e+00 -0.000000000000000000e+00 4.230975645230091592e-02 -6.412963085053316470e-02 8.059852795031209993e+00
7.938409619682697205e+00 -0.000000000000000000e+00 -0.000000000000000000e+00 -8.462951284703915111e-02 8.056627643025155550e+00 -0.000000000000000000e+00 4.230975645230091592e-02 -6.412963085053316470e-02 8.067933544978979299e+00
7.949848611642415186e+00 -0.000000000000000000e+00 -0.000000000000000000e+00 -8.462951284703915111e-02 8.068236983340295154e+00 -0.000000000000000000e+00 4.230975645230091592e-02 -6.412963085053316470e-02 8.079559176733342341e+00
7.962268847232798485e+00 -0.000000000000000000e+00 -0.000000000000000000e+00 -8.462951284703915111e-02 8.080842179870989739e+00 -0.000000000000000000e+00 4.230975645230091592e-02 -6.412963085053316470e-02 8.092182062193211678e+00
7.973544225519326289e+00 -0.000000000000000000e+00 -0.000000000000000000e+00 -8.462951284703915111e-02 8.092285469992965830e+00 -0.000000000000000000e+00 4.230975645230091592e-02 -6.412963085053316470e-02 8.103641410736750927e+00
7.982314984313196859e+00 -0.000000000000000000e+00 -0.000000000000000000e+00 -8.462951284703915111e-02 8.101186842072987560e+00 -0.000000000000000000e+00 4.230975645230091592e-02 -6.412963085053316470e-02 8.112555274152869700e+00
7.987335686258524525e+00 -0.000000000000000000e+00 -0.000000000000000000e+00 -8.462951284703915111e-02 8.106282311822930353e+00 -0.000000000000000000e+00 4.230975645230091592e-02 -6.412963085053316470e-02 8.117657894397650509e+00
7.986473843515550897e+00 -0.000000000000000000e+00 -0.000000000000000000e+00 -8.462951284703915111e-02 8.105407634601833777e+00 -0.000000000000000000e+00 4.230975645230091592e-02 -6.412963085053316470e-02 8.116781989738621306e+00
7.978052741037953588e+00 -0.000000000000000000e+00 -0.000000000000000000e+00 -8.462951284703915111e-02 8.096861125886112731e+00 -0.000000000000000000e+00 4.230975645230091592e-02 -6.412963085053316470e-02 8.108223487667936880e+00
7.963077896096669939e+00 -0.000000000000000000e+00 -0.000000000000000000e+00 -8.462951284703915111e-02 8.081663277011507773e+00 -0.000000000000000000e+00 4.230975645230091592e-02 -6.412963085053316470e-02 8.093004311583097632e+00
7.945961150544810891e+00 -0.000000000000000000e+00 -0.000000000000000000e+00 -8.462951284703915111e-02 8.064291630549934808e+00 -0.000000000000000000e+00 4.230975645230091592e-02 -6.412963085053316470e-02 8.075608287412851638e+00
7.931714452752093969e+00 -0.000000000000000000e+00 -0.000000000000000000e+00 -8.462951284703915111e-02 8.049832772320476337e+00 -0.000000000000000000e+00 4.230975645230091592e-02 -6.412963085053316470e-02 8.061129139002188637e+00
7.923067185896366382e+00 -0.000000000000000000e+00 -0.000000000000000000e+00 -8.462951284703915111e-02 8.041056731210012742e+00 -0.000000000000000000e+00 4.230975645230091592e-02 -6.412963085053316470e-02 8.052340782432615640e+00
7.921626818226555677e+00 -0.000000000000000000e+00 -0.000000000000000000e+00 -8.462951284703915111e-02 8.039594913724675607e+00 -0.000000000000000000e+00 4.230975645230091592e-02 -6.412963085053316470e-02 8.050876913572086124e+00
7.928157469408161795e+00 -0.000000000000000000e+00 -0.000000000000000000e+00 -8.462951284703915111e-02 8.046222818727457593e+00 -0.000000000000000000e+00 4.230975645230091592e-02 -6.412963085053316470e-02 8.057514119544329390e+00
7.941528216488115355e+00 -0.000000000000000000e+00 -0.000000000000000000e+00 -8.462951284703915111e-02 8.059792681672240278e+00 -0.000000000000000000e+00 4.230975645230091592e-02 -6.412963085053316470e-02 8.071103025138496534e+00
7.959286152417088367e+00 -0.000000000000000000e+00 -0.000000000000000000e+00 -8.462951284703915111e-02 8.077815067053961684e+00 -0.000000000000000000e+00 4.230975645230091592e-02 -6.412963085053316470e-02 8.089150701415636746e+00
7.978845180210433874e+00 -0.000000000000000000e+00 -0.000000000000000000e+00 -8.462951284703915111e-02 8.097665365984664021e+00 -0.000000000000000000e+00 4.230975645230091592e-02 -6.412963085053316470e-02 8.109028856360991355e+00
7.997729269913927297e+00 -0.000000000000000000e+00 -0.000000000000000000e+00 -8.462951284703915111e-02 8.116830675714370003e+00 -0.000000000000000000e+00 4.230975645230091592e-02 -6.412963085053316470e-02 8.128221060855883806e+00
8.012362049068244119e+00 -0.000000000000000000e+00 -0.000000000000000000e+00 -8.462951284703915111e-02 8.131681364791331745e+00 -0.000000000000000000e+00 4.230975645230091592e-02 -6.412963085053316470e-02 8.143092589971882234e+00
8.020059013989197183e+00 -0.000000000000000000e+00 -0.000000000000000000e+00 -8.462951284703915111e-02 8.139492952164482986e+00 -0.000000000000000000e+00 4.230975645230091592e-02 -6.412963085053316470e-02 8.150915139380932928e+00
8.020121449168801320e+00 -0.000000000000000000e+00 -0.000000000000000000e+00 -8.462951284703915111e-02 8.139556317122734086e+00 -0.000000000000000000e+00 4.230975645230091592e-02 -6.412963085053316470e-02 8.150978593259672778e+00
8.012580176343638172e+00 -0.000000000000000000e+00 -0.000000000000000000e+00 -8.462951284703915111e-02 8.131902740397027429e+00 -0.000000000000000000e+00 4.230975645230091592e-02 -6.412963085053316470e-02 8.143314276234789872e+00
7.997647846173627784e+00 -0.000000000000000000e+00 -0.000000000000000000e+00 -8.462951284703915111e-02 8.116748039419048766e+00 -0.000000000000000000e+00 4.230975645230091592e-02 -6.412963085053316470e-02 8.128138308597229411e+00
7.976914926022558916e+00 -0.000000000000000000e+00 -0.000000000000000000e+00 -8.462951284703915111e-02 8.095706366640254004e+00 -0.000000000000000000e+00 4.230975645230091592e-02 -6.412963085053316470e-02 8.107067107943406015e+00
7.953794088540061757e+00 -0.000000000000000000e+00 -0.000000000000000000e+00 -8.462951284703915111e-02 8.072241215896728050e+00 -0.000000000000000000e+00 4.230975645230091592e-02 -6.412963085053316470e-02 8.083569028447428195e+00
7.933144921738884747e+00 -0.000000000000000000e+00 -0.000000000000000000e+00 -8.462951284703915111e-02 8.051284543712643682e+00 -0.000000000000000000e+00 4.230975645230091592e-02 -6.412963085053316470e-02 8.062582947670627220e+00
7.919762865477029123e+00 -0.000000000000000000e+00 -0.000000000000000000e+00 -8.462951284703915111e-02 8.037703203171931321e+00 -0.000000000000000000e+00 4.230975645230091592e-02 -6.412963085053316470e-02 8.048982548374622681e+00
7.915801554148530705e+00 -0.000000000000000000e+00 -0.000000000000000000e+00 -8.462951284703915111e-02 8.033682900380004099e+00 -0.000000000000000000e+00 4.230975645230091592e-02 -6.412963085053316470e-02 8.044956603873171019e+00
7.920495964299091973e+00 -0.000000000000000000e+00 -0.000000000000000000e+00 -8.462951284703915111e-02 8.038447219230150154e+00 -0.000000000000000000e+00 4.230975645230091592e-02 -6.412963085053316470e-02 8.049727608512830201e+00
7.932973268457971905e+00 -0.000000000000000000e+00 -0.000000000000000000e+00 -8.462951284703915111e-02 8.051110334187447037e+00 -0.000000000000000000e+00 4.230975645230091592e-02 -6.412963085053316470e-02 8.062408493676837651e+00
7.952272026027511487e+00 -0.000000000000000000e+00 -0.000000000000000000e+00 -8.462951284703915111e-02 8.070696486977654516e+00 -0.000000000000000000e+00 4.230975645230091592e-02 -6.412963085053316470e-02 8.082022131803830334e+00
7.975533334787414219e+00 -0.000000000000000000e+00 -0.000000000000000000e+00 -8.462951284703915111e-02 8.094304200882541878e+00 -0.000000000000000000e+00 4.230975645230091592e-02 -6.412963085053316470e-02 8.105662974520020825e+00
7.997355352311309673e+00 -0.000000000000000000e+00 -0.000000000000000000e+00 -8.462951284703915111e-02 8.116451189766806351e+00 -0.000000000000000000e+00 4.230975645230091592e-02 -6.412963085053316470e-02 8.127841042374383207e+00
8.011218493262896700e+00 -0.000000000000000000e+00 -0.000000000000000000e+00 -8.462951284703915111e-02 8.130520779265012266e+00 -0.000000000000000000e+00 4.230975645230091592e-02 -6.412963085053316470e-02 8.141930375790938257e+00
8.012711457919941438e+00 -0.000000000000000000e+00 -0.000000000000000000e+00 -8.462951284703915111e-02 8.132035977006076166e+00 -0.000000000000000000e+00 4.230975645230091592e-02 -6.412963085053316470e-02 8.143447699815762775e+00
8.001435593090214127e+00 -0.000000000000000000e+00 -0.000000000000000000e+00 -8.462951284703915111e-02 8.120592193094942957e+00 -0.000000000000000000e+00 4.230975645230091592e-02 -6.412963085053316470e-02 8.131987856791070612e+00
7.981996852649459129e+00 -0.000000000000000000e+00 -0.000000000000000000e+00 -8.462951284703915111e-02 8.100863972823519887e+00 -0.000000000000000000e+00 4.230975645230091592e-02 -6.412963085053316470e-02 8.112231951819008913e+00
7.959986974517945235e+00 -0.000000000000000000e+00 -0.000000000000000000e+00 -8.462951284703915111e-02 8.078526325728743629e+00 -0.000000000000000000e+00 4.230975645230091592e-02 -6.412963085053316470e-02 8.089862958202672871e+00
7.938915007183535266e+00 -0.000000000000000000e+00 -0.000000000000000000e+00 -8.462951284703915111e-02 8.057140556707670598e+00 -0.000000000000000000e+00 4.230975645230091592e-02 -6.412963085053316470e-02 8.068447178436350953e+00
7.920439531471936689e+00 -0.000000000000000000e+00 -0.000000000000000000e+00 -8.462951284703915111e-02 8.038389946010831011e+00 -0.000000000000000000e+00 4.230975645230091592e-02 -6.412963085053316470e-02 8.049670254921975854e+00
7.906600631406812241e+00 -0.000000000000000000e+00 -0.000000000000000000e+00 -8.462951284703915111e-02 8.024344958393008653e+00 -0.000000000000000000e+00 4.230975645230091592e-02 -6.412963085053316470e-02 8.035605557909608621e+00
7.899729775353528716e+00 -0.000000000000000000e+00 -0.000000000000000000e+00 -8.462951284703915111e-02 8.017371782220712007e+00 -0.000000000000000000e+00 4.230975645230091592e-02 -6.412963085053316470e-02 8.028622596247638299e+00
7.901687854522235988e+00 -0.000000000000000000e+00 -0.000000000000000000e+00 -8.462951284703915111e-02 8.019359020912567360e+00 -0.000000000000000000e+00 4.230975645230091592e-02 -6.412963085053316470e-02 8.030612623641442127e+00
7.912028231111913890e+00 -0.000000000000000000e+00 -0.000000000000000000e+00 -8.462951284703915111e-02 8.029853385383844966e+00 -0.000000000000000000e+00 4.230975645230091592e-02 -6.412963085053316470e-02 8.041121714901946049e+00
7.928051337831086620e+00 -0.000000000000000000e+00 -0.000000000000000000e+00 -8.462951284703915111e-02 8.046115106649480708e+00 -0.000000000000000000e+00 4.230975645230091592e-02 -6.412963085053316470e-02 8.057406256313223381e+00
7.945762892680042988e+00 -0.000000000000000000e+00 -0.000000000000000000e+00 -8.462951284703915111e-02 8.064090420248161806e+00 -0.000000000000000000e+00 4.230975645230091592e-02 -6.412963085053316470e-02 8.075406794751703643e+00
7.961770546848165431e+00 -0.000000000000000000e+00 -0.000000000000000000e+00 -8.462951284703915111e-02 8.080336458845073011e+00 -0.000000000000000000e+00 4.230975645230091592e-02 -6.412963085053316470e-02 8.091675631487378340e+00
7.973868615656038550e+00 -0.000000000000000000e+00 -0.000000000000000000e+00 -8.462951284703915111e-02 8.092614690915869602e+00 -0.000000000000000000e+00 4.230975645230091592e-02 -6.412963085053316470e-02 8.103971093656996416e+00
7.981074535451594620e+00 -0.000000000000000000e+00 -0.000000000000000000e+00 -8.462951284703915111e-02 8.099927920567719042e+00 -0.000000000000000000e+00 4.230975645230091592e-02 -6.412963085053316470e-02 8.111294585996770223e+00
7.983906012601758917e+00 -0.000000000000000000e+00 -0.000000000000000000e+00 -8.462951284703915111e-02 8.102801563800163365e+00 -0.000000000000000000e+00 4.230975645230091592e-02 -6.412963085053316470e-02 8.114172261825000732e+00
7.982697644724488839e+00 -0.000000000000000000e+00 -0.000000000000000000e+00 -8.462951284703915111e-02 8.101575201026477657e+00 -0.000000000000000000e+00 4.230975645230091592e-02 -6.412963085053316470e-02 8.112944178091220593e+00
7.976763879426028048e+00 -0.000000000000000000e+00 -0.000000000000000000e+00 -8.462951284703915111e-02 8.095553070671671847e+00 -0.000000000000000000e+00 4.230975645230091592e-02 -6.412963085053316470e-02 8.106913596854063542e+00
7.966488243068686081e+00 -0.000000000000000000e+00 -0.000000000000000000e+00 -8.462951284703915111e-02 8.085124410538179873e+00 -0.000000000000000000e+00 4.230975645230091592e-02 -6.412963085053316470e-02 8.096470302134811448e+00
7.953954936562172229e+00 -0.000000000000000000e+00 -0.000000000000000000e+00 -8.462951284703915111e-02 8.072404459251050213e+00 -0.000000000000000000e+00 4.230975645230091592e-02 -6.412963085053316470e-02 8.083732500882430116e+00
7.941142220967021714e+00 -0.000000000000000000e+00 -0.000000000000000000e+00 -8.462951284703915111e-02 8.059400937942234222e+00 -0.000000000000000000e+00 4.230975645230091592e-02 -6.412963085053316470e-02 8.070710731673655047e+00
7.929735188754333919e+00 -0.000000000000000000e+00 -0.000000000000000000e+00 -8.462951284703915111e-02 8.047824033317384718e+00 -0.000000000000000000e+00 4.230975645230091592e-02 -6.412963085053316470e-02 8.059117581125320839e+00
7.921127240014278925e+00 -0.000000000000000000e+00 -0.000000000000000000e+00 -8.462951284703915111e-02 8.039087895842222053e+00 -0.000000000000000000e+00 4.230975645230091592e-02 -6.412963085053316470e-02 8.050369184189728244e+00
7.917008468227169971e+00 -0.000000000000000000e+00 -0.000000000000000000e+00 -8.462951284703915111e-02 8.034907787706183413e+00 -0.000000000000000000e+00 4.230975645230091592e-02 -6.412963085053316470e-02 8.046183210088456050e+00
7.919400232252455929e+00 -0.000000000000000000e+00 -0.000000000000000000e+00 -8.462951284703915111e-02 8.037335169648441635e+00 -0.000000000000000000e+00 4.230975645230091592e-02 -6.412963085053316470e-02 8.048613998387107671e+00
7.929007727416820472e+00 -0.000000000000000000e+00 -0.000000000000000000e+00 -8.462951284703915111e-02 8.047085738695230361e+00 -0.000000000000000000e+00 4.230975645230091592e-02 -6.412963085053316470e-02 8.058378250452131297e+00
7.943456207662017654e+00 -0.000000000000000000e+00 -0.000000000000000000e+00 -8.462951284703915111e-02 8.061749384302869359e+00 -0.000000000000000000e+00 4.230975645230091592e-02 -6.412963085053316470e-02 8.073062473619319945e+00
7.959663752130510694e+00 -0.000000000000000000e+00 -0.000000000000000000e+00 -8.462951284703915111e-02 8.078198289945015986e+00 -0.000000000000000000e+00 4.230975645230091592e-02 -6.412963085053316470e-02 8.089534462085595123e+00
7.975091205235444569e+00 -0.000000000000000000e+00 -0.000000000000000000e+00 -8.462951284703915111e-02 8.093855487180473318e+00 -0.000000000000000000e+00 4.230975645230091592e-02 -6.412963085053316470e-02 8.105213631135578467e+00
7.987654702704169551e+00 -0.000000000000000000e+00 -0.000000000000000000e+00 -8.462951284703915111e-02 8.106606079030227008e+00 -0.000000000000000000e+00 4.230975645230091592e-02 -6.412963085053316470e-02 8.117982115949333277e+00
7.995377896215142499e+00 -0.000000000000000000e+00 -0.000000000000000000e+00 -8.462951284703915111e-02 8.114444285587149253e+00 -0.000000000000000000e+00 4.230975645230091592e-02 -6.412963085053316470e-02 8.125831321896940906e+00
7.997838976103425424e+00 -0.000000000000000000e+00 -0.000000000000000000e+00 -8.462951284703915111e-02 8.116942015637464536e+00 -0.000000000000000000e+00 4.230975645230091592e-02 -6.412963085053316470e-02 8.128332557023078664e+00
7.994316451088140596e+00 -0.000000000000000000e+00 -0.000000000000000000e+00 -8.462951284703915111e-02 8.113367033523138261e+00 -0.000000000000000000e+00 4.230975645230091592e-02 -6.412963085053316470e-02 8.124752558119629597e+00
7.984836912564219347e+00 -0.000000000000000000e+00 -0.000000000000000000e+00 -8.462951284703915111e-02 8.103746326634823305e+00 -0.000000000000000000e+00 4.230975645230091592e-02 -6.412963085053316470e-02 8.115118350450030604e+00
7.969818021482478976e+00 -0.000000000000000000e+00 -0.000000000000000000e+00 -8.462951284703915111e-02 8.088503775688536734e+00 -0.000000000000000000e+00 4.230975645230091592e-02 -6.412963085053316470e-02 8.099854409562871282e+00
7.952494050203473996e+00 -0.000000000000000000e+00 -0.000000000000000000e+00 -8.462951284703915111e-02 8.070921817515582575e+00 -0.000000000000000000e+00 4.230975645230091592e-02 -6.412963085053316470e-02 8.082247778548939721e+00
7.938231526969852681e+00 -0.000000000000000000e+00 -0.000000000000000000e+00 -8.462951284703915111e-02 8.056446898173577509e+00 -0.000000000000000000e+00 4.230975645230091592e-02 -6.412963085053316470e-02 8.067752546487861665e+00
7.931159772172002853e+00 -0.000000000000000000e+00 -0.000000000000000000e+00 -8.462951284703915111e-02 8.049269831491933758e+00 -0.000000000000000000e+00 4.230975645230091592e-02 -6.412963085053316470e-02 8.060565408195193626e+00
7.934059077509727942e+00 -0.000000000000000000e+00 -0.000000000000000000e+00 -8.462951284703915111e-02 8.052212313003124677e+00 -0.000000000000000000e+00 4.230975645230091592e-02 -6.412963085053316470e-02 8.063512018903614020e+00