-3.854886597099999729e-02 8.036133171263999841e+00 2.322784778600000058e-02 2.423139121999999882e-03 4.025024409565999939e+00 4.994636571000000101e-03 1.153328658799999962e-02 3.987789156662000067e+00 4.080601842307999938e+00 3.903079670896000053e+00 8.027193970963999448e+00 1.669038006100000138e-02 3.939123244973000038e+00 8.012025721090999753e+00 4.076169761178999984e+00 3.937034707780000087e+00 4.023138269178000215e+00 8.603181839999999789e-03 3.964843507518999832e+00 3.993632475875999788e+00 4.075495433969000381e+00 1.213590565630000007e-01 7.868591435253000199e+00 4.211411702087000108e+00 1.969798592150000083e+00 1.900098879453999912e+00 2.133843149576000187e+00 2.062122618300000099e+00 1.896673574165999909e+00 6.135194096646999995e+00 2.014620281951999825e+00 5.993225303101000101e+00 2.097865390027000121e+00 2.015032915459999963e+00 5.943207925477000053e+00 6.116918857154000300e+00 6.082604200275000039e+00 1.852298143535999975e+00 6.042867322755999915e+00 6.021769096394000265e+00 6.058189247470999739e+00 2.135704953736000000e+00 6.012270170881000020e+00 5.930687857651999906e+00 6.115039501923999588e+00 5.972208134583000039e+00 1.984528806319000083e+00 2.036738410811000044e+00 1.974061314425999969e+00 1.977338734968999923e+00 8.006073040916000139e+00 4.138236248499999742e-02 2.036322855896000039e+00 1.986208629384000002e+00 1.934357864177000064e+00 1.543357201999999949e-02 2.025036825682999808e+00 1.940669556445999921e+00 1.992778865165000024e+00 3.994644467750999794e+00 7.935238626299000231e+00 1.947134284984000097e+00 6.020105274655000116e+00 1.955288104572999952e+00 -1.176231037600000001e-02 5.978796505974999675e+00 1.935098793974000086e+00 6.029663802356999724e+00 8.024073029458000050e+00 7.876475198995000149e+00 6.097910828255000304e+00 2.030178275657000153e+00 1.926371565476000081e+00 4.095487344837000165e+00 2.016460149544000213e+00 1.872336365166000105e+00 6.095792387387000133e+00 4.025803360869000258e+00 7.901487563366999645e+00 6.080667836457999798e+00 5.988019861498999674e+00 1.934850676314000095e+00 4.071367467877999857e+00 6.012511184934999697e+00 5.963969094951999672e+00 1.973104909494999948e+00 8.012666242186000432e+00 3.863859978378000104e+00 2.024517110915000195e+00 1.982689999198000042e+00 5.845450468203000405e+00 8.000649939124999221e+00 1.988755580806000012e+00 5.909010124601000058e+00 2.029037241840999872e+00 4.115180471948000296e+00 3.926874625464999990e+00 1.966031720931000093e+00 6.046124727593999992e+00 6.003858206549000265e+00 -1.523531462199999992e-02 6.002243491839999834e+00 5.946001250832999574e+00 6.012828562442999569e+00 8.012457276156000674e+00 3.854597735757999910e+00 6.061116920475999592e+00 2.028318481817000141e+00 5.893103864372999823e+00 4.111532806383999983e+00 1.983048695818000029e+00 5.941157592613000027e+00 6.067651481692999837e+00 4.003971994764000009e+00 3.896621585067999938e+00 6.038125661881999839e+00 6.030231713101000146e+00 5.954678373115999790e+00 4.074865158876000315e+00 6.042035562644000102e+00
-3.071981461500000038e-02 8.030875441458999120e+00 3.204581271999999703e-02 3.516890123999999885e-03 4.016666077612000230e+00 2.260912114099999926e-02 -1.961644070899999995e-02 3.995184173911999981e+00 4.074541423583999844e+00 3.927292563337999809e+00 7.994991175216999757e+00 1.982312408200000153e-02 3.942670934102999958e+00 8.030997702274000005e+00 4.062408806898000435e+00 3.933818144376000081e+00 4.019535838713999887e+00 1.384833738199999983e-02 3.940506247726999867e+00 3.990736815910000068e+00 4.076183320127999998e+00 1.484819972139999888e-01 7.887316729550000183e+00 4.174305033515000041e+00 2.010981416292000112e+00 1.910856411531000054e+00 2.134847517413000162e+00 2.066865337448000162e+00 1.875382847939000008e+00 6.158892298831999845e+00 2.006207338877000090e+00 6.023990713175000344e+00 2.095983407088000128e+00 2.027390630919999825e+00 5.916032710569999686e+00 6.095095251456999819e+00 6.072593330509000076e+00 1.828563085821000023e+00 6.022295937756999784e+00 6.027495237029000030e+00 6.073736538997000167e+00 2.127082010031999815e+00 6.001845519498999693e+00 5.916341356225999881e+00 6.081725058606999745e+00 5.968013001850000165e+00 1.976486807626999909e+00 2.058750811506000034e+00 1.972563779179999921e+00 2.059417443704000039e+00 7.997253482859999707e+00 1.301681818300000001e-02 2.034720429382999907e+00 2.017605451994000099e+00 1.944487990929000043e+00 2.783597704800000114e-02 1.994419686038999995e+00 1.974379263881000046e+00 2.043584551938999905e+00 3.946649986666999954e+00 7.950459548767000229e+00 1.917567058886999964e+00 6.007612233314000072e+00 1.985720783516000010e+00 4.331203424800000173e-02 5.958175353118000395e+00 1.920856949357000021e+00 6.044364510143999780e+00 7.983869681322000034e+00 -3.938657216400000272e-02 6.119755099989999891e+00 2.037070127309999812e+00 1.934303899606000021e+00 4.141384336358999718e+00 2.013235905560999850e+00 1.896917219584000058e+00 6.087270996591000127e+00 4.056444304863999761e+00 7.899957896615999786e+00 6.110864627309999797e+00 5.979012970766000024e+00 1.870978357055000041e+00 4.127467316515000206e+00 5.977595699223000381e+00 5.988941188403999583e+00 1.913325591021000083e+00 8.044155195974999728e+00 3.838925257012999914e+00 2.015152310898999932e+00 1.923784426019000016e+00 5.805365290882000373e+00 7.981476845202999826e+00 2.049020452535000203e+00 5.819455643438000259e+00 2.031424853766000016e+00 4.164774887673000414e+00 3.972285768881000045e+00 1.935477188946000071e+00 6.099014020545999948e+00 5.970386088787999590e+00 -3.291521907100000005e-02 5.962134546777999589e+00 5.957517483563999683e+00 5.960187454511999938e+00 7.978023059728999833e+00 3.870533775788000064e+00 6.054206804404000053e+00 2.038291852636000101e+00 5.860363138493999813e+00 4.129114057401999993e+00 1.964193458336999987e+00 5.935181645582000343e+00 6.041188204907999904e+00 3.980668040492000070e+00 3.925431643375000057e+00 6.065419701345000192e+00 6.029082765997999971e+00 5.956213676936999768e+00 4.091800650117000338e+00 6.087418877498000036e+00
-2.431534837299999946e-02 8.024610199229000429e+00 3.851554120700000083e-02 2.835514323999999923e-03 4.009699006667999832e+00 3.971575585800000280e-02 7.901671099668000409e+00 4.003168551332000114e+00 4.068029392890999851e+00 3.951542756579999871e+00 7.962426457543999803e+00 2.072925384899999834e-02 4.029668566969999866e+00 -2.237620310999999945e-02 4.050871878092999978e+00 3.932339189244999922e+00 4.016849621141999727e+00 1.893600933500000014e-02 3.916088480206000089e+00 3.989771109962000128e+00 4.076534358921000134e+00 1.773780559279999891e-01 7.898469313298999595e+00 4.144909283209000428e+00 2.033798239074000147e+00 1.923886296832000076e+00 2.130157849715000218e+00 2.074337339935000024e+00 1.853888736635000090e+00 6.179496704571000087e+00 1.998262264842999958e+00 6.039549062146000402e+00 2.099431387382999947e+00 2.033116714086999899e+00 5.904256998559000102e+00 6.073954454745000398e+00 6.058489466931000322e+00 1.796472942946000018e+00 6.019728707915000143e+00 6.029604881178999953e+00 6.076181188289999646e+00 2.116779092779999871e+00 5.994616698939999822e+00 5.909215351771999636e+00 6.063996847778000188e+00 5.963614380167999940e+00 1.972813057391000102e+00 2.074044318601000025e+00 1.964982142727000003e+00 2.117404011166000188e+00 7.983671845171000037e+00 1.913399108000000091e-03 2.030966882662000206e+00 2.055454373722000128e+00 1.959080557902000086e+00 4.526113055500000093e-02 1.979465258135999939e+00 2.010517915259999899e+00 2.079874743883999955e+00 3.934015857711000042e+00 1.134095078200000016e-02 1.900094993228000018e+00 5.980612265379999570e+00 2.005085759433999915e+00 9.466364013500000452e-02 5.941122471086999646e+00 1.918765916794000104e+00 6.058105887369999998e+00 7.967049414314000266e+00 -2.834603858899999856e-02 6.143016413385000263e+00 2.048558441975000033e+00 1.937152742240999981e+00 4.181733549195000066e+00 2.010718615632999917e+00 1.917182594063000067e+00 6.101610057291999567e+00 4.040357129223999699e+00 7.895069962874999625e+00 6.152017187185999880e+00 5.954786209053000157e+00 1.833256354273000044e+00 4.111995975782000379e+00 5.951994594278000150e+00 6.015162791076999582e+00 1.856323426239000041e+00 8.060842703033999967e+00 3.852648143186999885e+00 2.011597110713999825e+00 1.876876237060000063e+00 5.780430242791999795e+00 7.984225155590999989e+00 2.100635704276999860e+00 5.751629490132000200e+00 2.044600479616999866e+00 4.157324079168000175e+00 3.980394066130000130e+00 1.930236536852000029e+00 6.144322493287999620e+00 5.952701303000999644e+00 -2.485247871300000008e-02 5.928600616643000087e+00 5.970018848679999657e+00 5.944452532024000035e+00 7.963270260946000434e+00 3.879641312928999941e+00 6.063353336010999683e+00 2.040313824281999810e+00 5.842881041842000300e+00 4.121425853776999659e+00 1.964137159010999945e+00 5.935074442792999783e+00 6.013432836545000271e+00 3.960710255208999886e+00 3.942969363540000050e+00 6.079804552605000190e+00 6.018512705661000162e+00 5.960825996629999679e+00 4.067029669764999689e+00 6.104347408684000165e+00
-1.943815223100000059e-02 8.019977186805000713e+00 4.208671724500000211e-02 -1.030323469999999946e-04 4.005005368169999969e+00 5.524737853500000240e-02 7.873542666889999708e+00 4.011758052615999937e+00 4.062607127044000066e+00 3.976486157076000172e+00 7.932317420228000238e+00 1.970880722700000046e-02 4.031481300234999843e+00 -7.652729397000000190e-03 4.042646571318000426e+00 3.934157809988000132e+00 4.016066873577999630e+00 2.360635174299999944e-02 3.893587370770999811e+00 3.992178219626000057e+00 4.077312797129000188e+00 2.060110680120000037e-01 7.905827030425999880e+00 4.125332529862999920e+00 2.034595223299000111e+00 1.939628662707999940e+00 2.119931246411999926e+00 2.082328123872999814e+00 1.852828002225000104e+00 6.190670954089999789e+00 1.998276230729000069e+00 6.041672767568999625e+00 2.106356619121999785e+00 2.028221665388000083e+00 5.905925817518999921e+00 6.058666788803999559e+00 6.046418229922999821e+00 1.767723459891000104e+00 6.037116729301000184e+00 6.023550393296000394e+00 6.065519865857000426e+00 2.108940378254999803e+00 5.995052109391999728e+00 5.904655434620000420e+00 6.063109104037000208e+00 5.961081206140000255e+00 1.974740594036999974e+00 2.081541216066999933e+00 1.946695162736999940e+00 2.137586213461000195e+00 7.996089709539999646e+00 2.819613883900000048e-02 2.024852614254999850e+00 2.099010066222000148e+00 1.974789392549999967e+00 6.991884744899999615e-02 1.983428677448000110e+00 2.051351083658000007e+00 2.094085591412000014e+00 3.949775036334000067e+00 7.952209333902000132e+00 1.891368788964999936e+00 5.939199630371000183e+00 2.011221499913999899e+00 7.682317626699999846e-02 5.930963649497000389e+00 1.931354250737999934e+00 6.068524197843999879e+00 7.963239894982000244e+00 -4.909079967899999952e-02 6.169079839535999810e+00 2.061228996989000084e+00 1.932886158509999897e+00 4.197098012730999805e+00 2.007710202384000109e+00 1.927488163075000038e+00 6.143331835759999748e+00 3.995400841474999964e+00 7.893808569663000263e+00 6.200022664769000436e+00 5.915382971544000057e+00 1.835370136142000064e+00 4.064572025742999806e+00 5.942200475067999754e+00 6.045470321563000127e+00 1.807846711797000072e+00 8.051673807867999244e+00 3.887216060984000077e+00 2.018027662444000114e+00 1.847558985880999982e+00 5.782962889389000161e+00 7.997774354168999622e+00 2.132092458169999816e+00 5.717765083200999854e+00 2.068408342465000160e+00 4.110562294766999969e+00 3.959855318000999880e+00 1.952829245328000063e+00 6.179055371281999776e+00 5.954478987962000147e+00 -1.680991469000000030e-02 5.907396960375000283e+00 5.985453087227000424e+00 5.978792493854999890e+00 7.976843059881000286e+00 3.876340418740999993e+00 6.089492266506000284e+00 2.029239703693999974e+00 5.849391342921999914e+00 4.097910384548000273e+00 1.978933010235000012e+00 5.941902869180999858e+00 5.985019063751000346e+00 3.957372899092999941e+00 3.936682913119999849e+00 6.073619165495999894e+00 6.000077954033000260e+00 5.972117003921000311e+00 4.028709402551999830e+00 6.089440237655000310e+00
-1.542968873000000012e-02 8.017002450930000634e+00 4.298600776199999751e-02 -5.056513145999999743e-03 4.001949500518000136e+00 6.851299776499999994e-02 7.849279954236999757e+00 4.019156010130999768e+00 4.058492745167000315e+00 4.000676872421999875e+00 7.905447456662000327e+00 1.753940147599999944e-02 4.032188008344999908e+00 3.597658433000000110e-03 4.036804823856000368e+00 3.938646277496999915e+00 4.016628402579000223e+00 2.772361646799999940e-02 3.873919293386999918e+00 3.997244218161999818e+00 4.078083169586999901e+00 2.320650577360000022e-01 7.913215097810000209e+00 4.114150544355999806e+00 2.019091385403999794e+00 1.954891156763000071e+00 2.111312835821999911e+00 2.084882719113000160e+00 1.871436905988999921e+00 6.187612788951000198e+00 2.005954642971000013e+00 6.035387624853999711e+00 2.111237272687000122e+00 2.012080393830999903e+00 5.914478336898000066e+00 6.054260970076000170e+00 6.043427159067999987e+00 1.756636784284000052e+00 6.064910413049999782e+00 6.007919355984999932e+00 6.048350709113000434e+00 2.109524421222999990e+00 6.003970431075000391e+00 5.895749399918000400e+00 6.072402938147999585e+00 5.961749741391000335e+00 1.979955755823999963e+00 2.082314797451000121e+00 1.917333039369000014e+00 2.115704782913999882e+00 8.032940819419000178e+00 8.092479240899999593e-02 2.020328868871000161e+00 2.138112168242999989e+00 1.988782208993999934e+00 9.518924476899999487e-02 1.999975066958999959e+00 2.094848844571000068e+00 2.080800965924999968e+00 3.969927100527999908e+00 7.916735594831999734e+00 1.884885961890000017e+00 5.890499928611999891e+00 2.008194226581000219e+00 2.573207230000000047e-03 5.934795048865000311e+00 1.951374725108999897e+00 6.066648565752999822e+00 7.950578630039999872e+00 7.865280941521000102e+00 6.189780717420999778e+00 2.066674725382999789e+00 1.923150113283000007e+00 4.182821906520000077e+00 2.003516760404000063e+00 1.925002824316000005e+00 6.195158931045999573e+00 3.957318381853000222e+00 7.894529818258999576e+00 6.234234338447000034e+00 5.871659729141000206e+00 1.873223986246000061e+00 4.043554414121000029e+00 5.950964975816000369e+00 6.078633087554999648e+00 1.776469612714000057e+00 8.006104096431000627e+00 3.906761906897000092e+00 2.035968524899999910e+00 1.833295870916999970e+00 5.815422841860000247e+00 7.997142164089000360e+00 2.136688765465000195e+00 5.717957406484999616e+00 2.093312634489000068e+00 4.076707755700000213e+00 3.931287331316999811e+00 1.992034473991999954e+00 6.199190370309000109e+00 5.963420940769999845e+00 -3.898210046699999987e-02 5.899091730676000012e+00 6.000805372087000045e+00 6.045201863815999666e+00 7.998931636433000314e+00 3.867880335894000154e+00 6.120053776374000165e+00 2.003862941923999941e+00 5.880664529707000376e+00 4.084902652458000105e+00 1.990616983900000081e+00 5.945923882077999600e+00 5.957766387147000131e+00 3.976386806169999844e+00 3.912615984593999841e+00 6.043459099578000426e+00 5.978359971241999915e+00 5.988955916573000415e+00 4.025343777726999583e+00 6.060317782618000138e+00
-1.121193219700000049e-02 8.014508269912999694e+00 4.152526895199999679e-02 -1.105679708799999980e-02 4.000362244780999887e+00 7.917706737299999575e-02 7.828963601042000064e+00 4.024234419166999643e+00 4.055716545819000096e+00 4.021895110563000308e+00 7.882296756811999927e+00 1.404219375300000058e-02 4.031492633920000124e+00 1.142892063800000045e-02 4.032797596203000268e+00 3.944145561986000192e+00 4.018173813118999682e+00 3.091735364999999985e-02 3.857598401530000221e+00 4.004069369575000259e+00 4.078627774091000191e+00 2.529417373519999845e-01 7.922945366997000249e+00 4.109745896270999843e+00 1.996455112512000030e+00 1.964675025839000000e+00 2.109157957787000104e+00 2.078041613541000032e+00 1.891302884347999980e+00 6.172151438582000438e+00 2.013864146625000018e+00 6.026066032116999871e+00 2.109654909166999825e+00 1.990149993646000093e+00 5.932626070868000312e+00 6.063318526047000390e+00 6.053111049202000160e+00 1.759894306934999930e+00 6.089221454377000242e+00 5.988040079943999672e+00 6.033992422777999742e+00 2.124243198270999944e+00 6.018835055295999936e+00 5.888298544845000038e+00 6.082225790465000337e+00 5.965465074115000377e+00 1.983841071332000050e+00 2.079066611175000023e+00 1.879898836234999981e+00 2.058812916427999795e+00 8.053324698711000096e+00 1.085099204039999959e-01 2.022817866676999810e+00 2.162415108394999841e+00 1.999866303774000098e+00 1.027631616609999965e-01 2.018331410771000201e+00 2.134208954818999970e+00 2.041954280845000191e+00 3.992001692230000121e+00 7.881133035234999973e+00 1.879624434542999989e+00 5.843992089051999628e+00 2.003137671133000008e+00 -4.318270169300000155e-02 5.959646588472000239e+00 1.965858625794000059e+00 6.045457801763999939e+00 7.934142827409999654e+00 7.843350328608999611e+00 6.192434322909999622e+00 2.059046695513000014e+00 1.913746266736999990e+00 4.155933152692999677e+00 2.000752726436000106e+00 1.912260168223000045e+00 6.230696347054999862e+00 3.938737160736999865e+00 7.893007593809000078e+00 6.229313177134000235e+00 5.839126621262000327e+00 1.922074503249999955e+00 4.048692470957999667e+00 5.975171318501000250e+00 6.110082310397999983e+00 1.774244207176000065e+00 7.950778539064000228e+00 3.913472406343999843e+00 2.064054352013000138e+00 1.828105242391999896e+00 5.867665800364999740e+00 7.989053344314999805e+00 2.115750988199999849e+00 5.743844393225000289e+00 2.111396131415999911e+00 4.075565542790999807e+00 3.906657412444999977e+00 2.032900346118000190e+00 6.202857912907999705e+00 5.877786558957000196e+00 7.995998461265999779e+00 5.903758285067000067e+00 6.011502724726000224e+00 6.107004730395999559e+00 8.011146812945000306e+00 3.865812938421000045e+00 6.137030610666999841e+00 1.970547126965999984e+00 5.929663176963999582e+00 4.091025775678000187e+00 1.980098620686999933e+00 5.933473665836999977e+00 5.934369776858000378e+00 4.000862721202000039e+00 3.890487491038999934e+00 5.994150337927999672e+00 5.958699732700999618e+00 6.007487671776999605e+00 4.061782073100999924e+00 6.043181807644000259e+00
-6.099518968999999985e-03 8.012218034281000101e+00 3.812695723699999900e-02 -1.691694049099999944e-02 4.001236985821000403e+00 8.688159877300000167e-02 7.814148204019000232e+00 4.027495251419000333e+00 4.055043314099999741e+00 4.038871843636999692e+00 7.864797340480000010e+00 8.152804716000000215e-03 4.030244283670000094e+00 1.573521902500000028e-02 4.031443133060999884e+00 3.949602333686000222e+00 4.021222283541000309e+00 3.214190787500000035e-02 3.845343898592000098e+00 4.012457166425000388e+00 4.080038293314999898e+00 2.663311976800000203e-01 7.936696199570000054e+00 4.111343183676000379e+00 1.977270356780000071e+00 1.963742263839999946e+00 2.113615622580999887e+00 2.064484390964000049e+00 1.904808454354999903e+00 6.150452456088999931e+00 2.012938485495999963e+00 6.018149772494999716e+00 2.102223552210999991e+00 1.971804564893999911e+00 5.960043219394999703e+00 6.083921789462999996e+00 6.071942816246999719e+00 1.765495880362000003e+00 6.093635426080999729e+00 5.974016093457000132e+00 6.030008240889999982e+00 2.153222837887999841e+00 6.034097907816000195e+00 5.896213819517000410e+00 6.089288231811999630e+00 5.970283455091999869e+00 1.983349793671000061e+00 2.076202381404999908e+00 1.839991247649999995e+00 1.985915784948999896e+00 8.034253744937000619e+00 8.001750773200000388e-02 2.034096582907999995e+00 2.168592600329999787e+00 2.006914345848000103e+00 8.569194221600000272e-02 2.030694609380999882e+00 2.155171382001999980e+00 1.986271362681000019e+00 4.014540903104999892e+00 7.879797096190999994e+00 1.878461630344999911e+00 5.806786450878999695e+00 1.999333452169000047e+00 -1.951061389899999901e-02 6.000200599410000279e+00 1.964850867018999914e+00 6.009958808366000049e+00 7.940421815185000121e+00 7.853600257299000020e+00 6.169006554972000345e+00 2.040917473314999953e+00 1.911946574027000079e+00 4.135216211397000130e+00 2.003899901027999864e+00 1.898078017058999922e+00 6.231633899655999898e+00 3.930514621492000149e+00 7.896139918805999969e+00 6.180558606605999650e+00 5.829193703280999728e+00 1.951240490236000102e+00 4.053573311909000054e+00 6.006893430657999744e+00 6.133971257712000025e+00 1.810347531511000030e+00 7.940597837863999864e+00 3.921783583119999861e+00 2.096177273804999963e+00 1.830013692035000084e+00 5.921496472222999685e+00 7.999245454680999678e+00 2.079777773103999916e+00 5.783634677241000333e+00 2.120117962643000009e+00 4.086658644477999758e+00 3.894792619660000010e+00 2.062454895472999983e+00 6.192261119834999938e+00 5.859623545268999756e+00 7.993674275357999903e+00 5.921527173240000330e+00 6.015848374223000228e+00 6.132102948968999989e+00 8.006224981328999846e+00 3.877380417006000002e+00 6.127887781812000334e+00 1.942887854294000016e+00 5.984378567688000139e+00 4.103889498605999719e+00 1.941359721053000031e+00 5.898919761221000257e+00 5.919976457678999715e+00 4.002088607962999589e+00 3.882753492072000157e+00 5.943805943897999988e+00 5.947064876657999655e+00 6.025219006288000223e+00 4.096465970659999734e+00 6.056430094689000398e+00
-2.565623839999999845e-04 8.010366951302000160e+00 3.364477436399999910e-02 -2.189654155600000152e-02 4.005199299275999714e+00 9.109720701000000032e-02 7.806247121284999757e+00 4.029479654049000104e+00 4.057020944640999716e+00 4.093292813429999732e+00 7.790877213596999695e+00 8.080965809763000607e+00 4.029042511600000154e+00 1.653001557099999935e-02 4.033412026586000287e+00 3.954868725863999845e+00 4.025804469996000279e+00 3.016501728500000160e-02 3.837257588966000110e+00 4.021840423122999830e+00 4.083502297977999795e+00 2.726485617059999922e-01 7.955323175421000315e+00 4.117590723101000272e+00 1.966677602479000031e+00 1.949087861306000091e+00 2.121884029399999871e+00 2.050420912714999933e+00 1.915305677736000023e+00 6.130567633673999595e+00 1.997849054063999930e+00 6.012118646303999725e+00 2.091477259414999956e+00 1.965715875204000040e+00 5.985646383579999785e+00 6.112020721353999875e+00 6.093678950042000331e+00 1.773074660617999898e+00 6.074537102429999891e+00 5.973334698417000155e+00 6.036685148009000024e+00 2.185691782404000083e+00 6.042605402900999678e+00 5.921172521508999864e+00 6.098977449879000368e+00 5.973833798385999927e+00 1.979503599120000068e+00 2.074756438517999957e+00 1.804151933448000067e+00 1.920543591156000041e+00 7.996610601976000154e+00 3.931870850000000056e-02 2.049194706571999980e+00 2.160672255398000008e+00 2.007615988955000041e+00 5.979168023900000017e-02 2.034207165331999967e+00 2.143732369543000171e+00 1.926989986056000026e+00 4.014315586139000303e+00 7.919123645255999655e+00 1.879266287414999903e+00 5.782144470013999893e+00 1.995847343824999953e+00 3.469792708799999958e-02 6.040463362542999981e+00 1.947622291065000066e+00 5.977838892412999705e+00 7.979260869694000391e+00 7.891039118662999563e+00 6.124260875103000323e+00 2.021996896292999946e+00 1.921564549778000064e+00 4.120511186699999939e+00 2.016480550223000101e+00 1.891670239093999895e+00 6.198749334755000007e+00 3.931729023617000163e+00 7.913790960926999851e+00 6.112906096781999921e+00 5.840681220393999951e+00 1.940552350806999948e+00 4.054555933097000242e+00 6.034086890522999624e+00 6.147009430644000183e+00 1.878843095374000072e+00 7.983889718133999835e+00 3.915821616770999825e+00 2.121405504996999980e+00 1.843082720319999979e+00 5.961317791543000233e+00 8.022424196933000573e+00 2.043536794830000058e+00 5.822789770205000437e+00 2.119853447605999808e+00 4.096123274705999684e+00 3.905788564115999950e+00 2.073455225098999932e+00 6.169402368103999557e+00 5.917359735405000265e+00 -4.085666465099999783e-02 5.947284528578999918e+00 6.014705909497999770e+00 6.111428053207999866e+00 7.976801127554000281e+00 3.902812521456000106e+00 6.092937545735000349e+00 1.932874514050000103e+00 6.028802611120999799e+00 4.118540985161000201e+00 1.887671047932999890e+00 5.850655522471000403e+00 5.922981008075000275e+00 3.976793254233999875e+00 3.884676285804999907e+00 5.920005442287999742e+00 5.949383164278000180e+00 6.041257252072999684e+00 4.098607434749999889e+00 6.097934722215000214e+00
5.722370243000000391e-03 8.009252162366999883e+00 2.904544560000000067e-02 -2.552104357700000006e-02 4.011756119612999605e+00 9.122767810500000130e-02 7.805898008128999699e+00 4.030211680513000161e+00 4.061539313372000137e+00 4.099740586962999700e+00 7.789851709724000095e+00 8.072433990747999388e+00 4.027258717990999770e+00 1.389054998100000028e-02 4.038439387380000412e+00 3.960265572622999830e+00 4.030891281396000281e+00 2.456255901100000069e-02 3.832453037509000016e+00 4.031218372536000238e+00 4.089155983689000351e+00 2.762495920870000066e-01 7.978509443857999983e+00 4.126763764228000397e+00 1.964644943669999977e+00 1.923454256672999962e+00 2.129680364246000046e+00 2.041828419334000166e+00 1.929922388637999919e+00 6.121302608687000379e+00 1.970125613867999892e+00 6.002748436077999905e+00 2.080732614572000205e+00 1.974267390187999904e+00 5.995599933458000130e+00 6.143959359760000183e+00 6.114715948754000152e+00 1.796481992027999963e+00 6.045746408420000328e+00 5.984700816835999859e+00 6.046709432506999882e+00 2.201989712416000167e+00 6.041211425155999848e+00 5.944273072445000139e+00 6.116610840242000080e+00 5.973799100518999872e+00 1.976821179032999920e+00 2.070843544254000079e+00 1.782414890866999890e+00 1.884169031434999919e+00 7.969232895254999782e+00 4.455362762099999985e-02 2.059644443009000181e+00 2.145935417986000182e+00 2.000646576560999979e+00 3.680466275400000320e-02 2.028529193782000029e+00 2.096254971686000168e+00 1.877234101763000096e+00 3.979508388756999970e+00 1.323756786599999957e-02 1.874441274907999944e+00 5.771722110932000049e+00 1.992475426361999924e+00 4.314188008699999799e-02 6.060069552274000237e+00 1.924111545369999954e+00 5.967445519265999643e+00 8.029664307399000833e+00 -2.130451297999999896e-02 6.076372860171000312e+00 2.012717772060999888e+00 1.940880876250000053e+00 4.103461673175999636e+00 2.038934783110000204e+00 1.897562695658000065e+00 6.149300477445000190e+00 3.950528368120000078e+00 -1.598160520699999990e-02 6.065485133530000184e+00 5.866201433149000444e+00 1.895335429526000093e+00 4.063916447633999951e+00 6.045465207974999977e+00 6.147771173130999856e+00 1.954979884591999895e+00 8.026048623070000332e+00 3.882443829867999963e+00 2.127277465197999984e+00 1.872125910667000070e+00 5.979520515675000425e+00 8.024740830557000493e+00 2.019409121913999794e+00 5.851388076782000347e+00 2.110818492988999928e+00 4.110366446028000276e+00 3.938110646420000194e+00 2.064432895128999856e+00 6.134246336187000104e+00 5.898693351140000374e+00 -3.316932297999999977e-03 5.972572924459999655e+00 6.009989434636000105e+00 6.065962902695999581e+00 7.923526038514999925e+00 3.937213857479000101e+00 6.046806555052000043e+00 1.942641100174000046e+00 6.047244291794999782e+00 4.141037359395999928e+00 1.848664172817999996e+00 5.808758062725000393e+00 5.948443115707999773e+00 3.963661092549000120e+00 3.887408590884000148e+00 5.942459738100000166e+00 5.970406436091000302e+00 6.053134095783000213e+00 4.085567631357999829e+00 6.143509184581000149e+00