-2.863509895529999994e+04
-2.863463536179999937e+04
-2.863429388390000167e+04
-2.863429975180000110e+04
-2.863431894359999933e+04
-2.863413535530000081e+04
-2.863413116179999997e+04
-2.863415176739999879e+04
-2.863401906969999982e+04
-2.863397104910000053e+04
-2.863417085080000106e+04
-2.863421161389999907e+04
-2.863402078840000104e+04
-2.863393163740000091e+04
-2.863389204339999924e+04
-2.863372685550000097e+04
-2.863354541980000067e+04
-2.863332058269999834e+04
-2.863316724750000139e+04
-2.863319453720000092e+04
-2.863284205799999836e+04
-2.863264466639999955e+04
-2.863255036430000109e+04
-2.863264182969999820e+04
-2.863232141100000081e+04
-2.863253739050000149e+04
-2.863225274089999948e+04
-2.863209375279999949e+04
-2.863225550809999913e+04
-2.863265890120000040e+04
-2.863248462579999978e+04
-2.863255949559999863e+04
-2.863334182409999994e+04
-2.863363280780000059e+04
-2.863355940829999963e+04
-2.863350735989999885e+04
-2.863355762580000010e+04
-2.863351662330000181e+04
-2.863367905189999874e+04
-2.863373390039999867e+04
-2.863377677359999871e+04
-2.863383203950000097e+04
-2.863400760399999854e+04
-2.863408711050000056e+04
-2.863410893930000020e+04
-2.863427125510000042e+04
-2.863437200959999973e+04
-2.863438741730000038e+04
-2.863443648169999869e+04
-2.863462676590000046e+04
-2.863453397899999982e+04
-2.863444531410000127e+04
-2.863439119840000058e+04
-2.863429795569999987e+04
-2.863424495079999906e+04
-2.863435609879999902e+04
-2.863445944439999948e+04
-2.863437902910000048e+04
-2.863431694440000138e+04
-2.863423660889999883e+04
-2.863433067609999853e+04
-2.863431970749999891e+04
-2.863417002409999986e+04
-2.863383708729999853e+04
-2.863372652319999906e+04
-2.863379864200000156e+04
-2.863384168449999925e+04
-2.863392980289999832e+04
-2.863371071559999837e+04
-2.863334526220000043e+04
-2.863305326609999975e+04
-2.863286626959999921e+04
-2.863295417409999936e+04
-2.863283947009999974e+04
-2.863289274909999949e+04
-2.863265216119999968e+04
-2.863227291559999867e+04
-2.863216161940000165e+04
-2.863263289660000009e+04
-2.863284700470000098e+04
-2.863256674909999856e+04
-2.863231007200000022e+04
-2.863246368340000117e+04
-2.863269472529999985e+04
-2.863280203869999968e+04
-2.863268007999999827e+04
-2.863282692360000146e+04
-2.863317309430000023e+04
-2.863336975819999861e+04
-2.863348979550000149e+04
-2.863334020420000161e+04
-2.863368450769999981e+04
-2.863380899639999916e+04
-2.863405560110000079e+04
-2.863403222670000105e+04
-2.863413785510000162e+04
-2.863405119859999832e+04
-2.863420367260000057e+04
-2.863411387219999961e+04
-2.863417877139999837e+04
-2.863419334119999985e+04
-2.863435805819999950e+04
-2.863433998200000133e+04
-2.863426560500000051e+04
-2.863433956110000145e+04
-2.863435942359999899e+04
-2.863431185420000111e+04
-2.863427985500000068e+04
-2.863426783340000111e+04
-2.863417670020000151e+04
-2.863433943530000033e+04
-2.863435196429999996e+04
-2.863431997440000123e+04
-2.863409737890000179e+04
-2.863399203729999863e+04
-2.863392654269999912e+04
-2.863413326170000073e+04
-2.863384352360000048e+04
-2.863362294560000009e+04
-2.863333962949999841e+04
-2.863349323269999877e+04
-2.863313247609999962e+04
-2.863331589209999947e+04
-2.863307297319999998e+04
-2.863328834769999958e+04
-2.863306475789999968e+04
-2.863283052110000062e+04
-2.863291748020000159e+04
-2.863285678850000113e+04
-2.863253727739999886e+04
-2.863248001300000033e+04
-2.863250252869999895e+04
-2.863233838770000148e+04
-2.863201825779999854e+04
-2.863282762699999876e+04
-2.863276672340000005e+04
-2.863273058269999819e+04
-2.863287259800000174e+04
-2.863335117320000063e+04
-2.863329397080000126e+04
-2.863324895159999869e+04
-2.863384603060000154e+04
-2.863360980940000081e+04
-2.863369257780000044e+04
-2.863359298480000143e+04
-2.863391382589999921e+04
-2.863392531089999829e+04
-2.863388647850000052e+04
-2.863419462030000068e+04
-2.863421592489999966e+04
-2.863420942890000151e+04
-2.863425469000000157e+04
-2.863432298580000133e+04
-2.863424989959999948e+04
-2.863424809969999842e+04
-2.863433407169999919e+04
-2.863438392989999920e+04
-2.863441129910000018e+04
-2.863438924449999831e+04
-2.863424584540000069e+04
-2.863439904250000109e+04
-2.863429879300000175e+04
-2.863431825020000178e+04
-2.863420076400000107e+04
-2.863426016560000062e+04
-2.863412252209999860e+04
-2.863410952529999850e+04
-2.863398392840000088e+04
-2.863393747290000101e+04
-2.863385597000000053e+04
-2.863370302889999948e+04
-2.863372738089999984e+04
-2.863357571240000107e+04
-2.863341916449999917e+04
-2.863336435429999983e+04
-2.863326600759999928e+04
-2.863293755959999908e+04
-2.863312227780000103e+04
-2.863287485549999838e+04
-2.863280174610000176e+04
-2.863264668320000055e+04
-2.863266255059999821e+04
-2.863269682029999967e+04
-2.863279586850000123e+04
-2.863252348390000043e+04
-2.863260847110000032e+04
-2.863263337519999914e+04
-2.863251988609999898e+04
-2.863289115329999913e+04
-2.863310641219999889e+04
-2.863311379379999926e+04
-2.863320632209999894e+04
-2.863341738099999930e+04
-2.863332282679999844e+04
-2.863360369809999975e+04
-2.863372596010000052e+04
-2.863384566089999862e+04
-2.863387292910000178e+04
-2.863407395360000010e+04
-2.863395923620000030e+04
-2.863405601559999923e+04
-2.863405945459999930e+04
-2.863417254980000143e+04
-2.863416969189999872e+04
-2.863424101299999893e+04
-2.863413664670000071e+04
-2.863431951370000024e+04
-2.863441744370000015e+04
-2.863434551009999996e+04
-2.863425038979999954e+04
-2.863433198020000054e+04
-2.863430655900000056e+04
-2.863423627599999963e+04
-2.863418039800000042e+04
-2.863415646410000045e+04
-2.863424021189999985e+04
-2.863428166359999886e+04
-2.863406610699999874e+04
-2.863396370139999999e+04
-2.863383586609999838e+04
-2.863376420839999992e+04
-2.863385861709999881e+04
-2.863393895790000170e+04
-2.863366264809999848e+04
-2.863324626290000015e+04
-2.863338901980000082e+04
-2.863332163539999965e+04
-2.863373070799999914e+04
-2.863307318980000127e+04
-2.863312257600000157e+04
-2.863293777590000172e+04
-2.863275693020000108e+04
-2.863252592379999987e+04
-2.863308534080000027e+04
-2.863288514520000172e+04
-2.863269837320000079e+04
-2.863254865119999886e+04
-2.863279590340000141e+04
-2.863271795109999948e+04
-2.863246985670000140e+04
-2.863305333709999832e+04
-2.863325942569999825e+04
-2.863335158890000093e+04
-2.863324462320000021e+04
-2.863370876489999864e+04
-2.863374457070000062e+04
-2.863382783950000157e+04
-2.863382412960000147e+04
-2.863382618530000036e+04
-2.863378395549999914e+04
-2.863384970610000164e+04
-2.863406927590000123e+04
-2.863423450009999942e+04
-2.863396989480000047e+04
-2.863405192420000094e+04
-2.863416544760000033e+04
-2.863435374629999933e+04
-2.863425016609999875e+04
-2.863435077430000092e+04
-2.863433562090000123e+04
-2.863427208980000069e+04
-2.863417894639999940e+04
-2.863429143610000028e+04
-2.863424359159999949e+04
-2.863411221360000127e+04
-2.863399037719999978e+04
-2.863414250149999862e+04
-2.863419426689999818e+04
-2.863399591159999909e+04
-2.863399647059999916e+04
-2.863396451439999873e+04
-2.863398830989999988e+04
-2.863368696229999841e+04
-2.863394910529999834e+04
-2.863366764699999840e+04
-2.863356931740000073e+04
-2.863341604580000057e+04
-2.863341537930000050e+04
-2.863334243409999908e+04
-2.863306797079999888e+04
-2.863292282889999842e+04
-2.863277823229999922e+04
-2.863253730670000004e+04
-2.863256747520000135e+04
-2.863281746690000000e+04
-2.863273797059999924e+04
-2.863262885109999843e+04
-2.863291419559999849e+04
-2.863297213629999897e+04
-2.863297874539999975e+04
-2.863303665120000005e+04
-2.863304304160000174e+04
-2.863337730680000095e+04
-2.863320211130000098e+04
-2.863316175680000015e+04
-2.863336311639999985e+04
-2.863367642909999995e+04
-2.863364098440000089e+04
-2.863350510529999883e+04
-2.863347112140000172e+04
