-1.056377635430000017e-01 -7.460607454199999489e-02 -9.460359562400000311e-02 -1.072086138140000006e-01 1.067327541549999981e-01 7.421957074899999951e-02 6.625720648100000276e-02 6.486687119799999790e-02 -6.801138189399999479e-02 2.935352670000000025e-02 -6.269268938000000305e-03 -1.597298876880000051e-01 -7.782356305899999771e-02 -7.845469476800000230e-02 1.391790315710000059e-01 1.030131253499999983e-01 6.117647172099999892e-02 1.499947927200000024e-02 -6.399012763200000176e-02 6.807232538900000185e-02 2.529477707400000150e-02 1.101284641930000002e-01 -1.719616597139999870e-01 1.406471266000000053e-01 -1.375594342979999940e-01 -6.803356265899999922e-02 1.528725312310000028e-01 4.998345704999999917e-02 -3.414202206370000048e-01 7.570849613400000566e-02 -3.805772375200000002e-01 -4.268604964250000133e-01 1.979203311119999975e-01 -2.969251890599999832e-02 1.265745312440000048e-01 4.720558330800000285e-02 -1.507929775790000093e-01 -2.501478362269999867e-01 2.170756046779999948e-01 1.185220101240000018e-01 -1.632560218100000127e-01 -1.210877364960000063e-01 -4.586250240499999825e-02 6.506677345700000170e-02 5.053903164980000362e-01 -9.100971791900000496e-02 1.420974155639999903e-01 -1.026190487449999966e-01 2.081133655399999838e-02 -6.785533533199999967e-02 -2.129199494440000007e-01 1.314166876800000085e-02 5.022886824399999672e-02 -1.691995112799999854e-02 1.148008223090000030e-01 9.204935342299999657e-02 1.057796506820000010e-01 6.993722645000000418e-03 -1.045553684779999964e-01 7.781002144500000217e-02 9.012081104800000186e-02 1.240409869319999969e-01 -8.969233009700000592e-02 -6.361515783399999957e-02 2.869459776030000020e-01 3.900392469000000216e-03 4.792730812200000218e-02 -1.409738832700000062e-02 1.588038112999999932e-02 -1.294822746210000097e-01 -2.823222799800000071e-02 3.803954181599999984e-02 -7.281136000000000281e-05 2.220942104710000031e-01 2.308795607799999858e-02 1.210460472800000027e-02 1.103329865900000012e-01 -3.487131476170000077e-01 -7.326640655799999957e-02 9.512053379000000308e-02 -6.655730206899999890e-02 5.511923786200000064e-02 -3.588808247360000259e-01 9.342507489800000453e-02 1.054830254500000071e-02 -2.113266755000000122e-02 -2.352836052770000130e-01 1.305875635490000020e-01 7.505637045999999715e-03 2.677786639499999885e-02 3.001710173499999926e-02 3.268806267899999896e-02 6.157931326499999775e-02 9.561440045400000642e-02 3.953843515000000398e-03 -2.210287916470000114e-01 -8.665739523700000113e-02 1.240244966050000064e-01 -3.696677192500000264e-02 6.079394767699999869e-02 1.921277787289999983e-01 2.118997924200000105e-02 -1.025423355699999969e-02 9.758676458999999970e-02 -2.299667715610000107e-01 1.725684920949999979e-01 1.335838282119999887e-01 -2.368901517000000095e-02 7.537126189800000264e-02 1.279748011900000079e-02 1.477154672160000126e-01 1.448030914600000052e-02 3.340843153399999932e-02 -2.704368230299999953e-02 1.118034604049999992e-01 4.918766911300000155e-02 -6.809969239999999480e-02 1.344059440400000027e-02 -1.265004037789999869e-01 -8.276583177799999580e-02
-2.113381757639999914e-01 -8.326739140599999367e-02 -3.523723914790000133e-01 -2.589928577969999868e-01 2.495483161950000084e-01 -7.655693956400000388e-02 2.588864731089999816e-01 1.352656950639999911e-01 -3.131042391200000025e-02 3.570912170599999796e-02 1.765370221800000028e-02 -3.378336904640000249e-01 -1.350591191540000124e-01 -4.102360537490000181e-01 3.755659120579999954e-01 2.906018922349999922e-01 1.767511264109999924e-01 -2.360932121100000128e-02 2.500637173300000043e-02 3.275436643710000206e-01 -1.381005770600000036e-02 7.662551501599999815e-02 -3.161993317799999814e-01 3.484919212690000268e-01 -9.645070090099999716e-01 1.338706485030000115e-01 -3.166013962029999851e-01 1.606835211550000087e-01 -9.850002625499999775e-02 -1.148777137919999997e-01 3.382783139400000194e-02 -7.695658027030000126e-01 2.872607129570000084e-01 -3.275433744910000167e-01 8.847911679709999921e-01 3.816173301999999795e-02 -2.088471598509999971e-01 -4.783380834909999879e-01 9.814120789800000466e-01 -1.578416847080000018e-01 -6.696867224689999620e-01 -8.697359923799999337e-02 1.843040499530000098e-01 4.475340708000000167e-01 8.201637905140000129e-01 2.480596839799999870e-02 4.435675571330000011e-01 -6.657055895779999677e-01 -1.008598522279999937e-01 -4.009128380220000065e-01 -1.160415645210000068e-01 2.717205030750000083e-01 -3.996169427500000093e-02 1.198708974129999993e-01 7.778438079199999355e-02 7.494110960500000029e-02 2.722230847739999793e-01 3.814740237400000150e-02 -2.445035044499999921e-01 6.578002511930000074e-01 -2.664587569800000097e-02 2.179901371359999895e-01 -2.447994395929999900e-01 -1.907614495299999879e-01 4.716131793500000224e-02 7.107808621599999432e-02 2.144291482250000047e-01 -4.433437686000000003e-03 4.584821962539999962e-01 -4.919676429920000205e-01 3.258846567800000038e-02 8.870781069800000307e-02 -8.451204343500000327e-02 -8.376670054300000556e-02 1.655834451400000143e-02 -6.815060917800000451e-02 4.051649499480000083e-01 -8.425268476260000527e-01 -5.600853157699999668e-02 2.056618459479999939e-01 -2.592880414300000047e-01 4.425963845940000252e-01 -1.350725836370999966e+00 1.571939748579999907e-01 2.368339333399999830e-02 5.034191909699999717e-02 -2.129847922349999978e-01 7.340375839880000086e-01 1.019800797259999975e-01 2.058617404629999870e-01 2.602645088109999949e-01 4.301089150360000168e-01 -1.342332029349999900e-01 3.834059392460000271e-01 1.995049276639999924e-01 -1.045340590387999979e+00 -6.819321060199999840e-01 4.478222077740000029e-01 -1.211384230449999988e-01 2.826390087119999839e-01 4.940412177910000202e-01 1.155999205930000051e-01 2.472054048099999943e-02 6.464814528740000510e-01 3.785325641789999973e-01 -1.264621351540000105e-01 2.845139991949999780e-01 -1.304991303580000095e-01 2.651462745090000239e-01 -4.725547338719999768e-01 3.360965569409999909e-01 1.127468907810000032e-01 -1.624599901800000135e-02 4.720990545099999769e-02 -1.872069901810000103e-01 -2.200024721699999908e-01 -1.575939949000000062e-01 5.686391314800000318e-02 -7.959278658139999907e-01 -4.921743321639999724e-01
-2.361626364199999883e-01 2.647184400600000043e-02 -4.297803248720000191e-01 -3.284277928830000026e-01 2.270245229350000005e-01 -2.526849205180000113e-01 3.701941730889999893e-01 -2.586622478799999875e-02 5.580276631500000195e-02 -3.088724253300000055e-02 1.728775546509999927e-01 -2.809486916999999750e-01 -1.890085071600000055e-01 -5.410383138050000040e-01 3.853645639200000139e-01 3.738839314749999865e-01 1.692533410200000032e-01 -6.915358936500000386e-02 1.969311694549999991e-01 3.824525166809999988e-01 -4.931616819899999754e-02 -2.438480412299999858e-02 -2.315807322810000124e-01 3.924490794150000128e-01 -1.158719499543999998e+00 1.220946193130000024e-01 -3.281102718980000166e-01 1.771825821200000151e-02 1.124538740898000100e+00 -5.509965239799999859e-01 4.106140112430000100e-01 -7.492067017869999956e-01 1.641779247160000121e-01 -5.627842798940000391e-01 6.155722498989999458e-01 2.342524659590000113e-01 3.838614227099999832e-02 1.403321938629999988e-01 9.665665744139999571e-01 -4.834905006970000030e-01 -7.421420756269999641e-01 9.578736076100000107e-02 3.318977744900000193e-01 7.328313938899999602e-02 8.079382150560000531e-01 5.690533696299999999e-02 5.177597938400000377e-01 -8.039396547149999517e-01 -1.892654393890000064e-01 -6.531803925339999539e-01 4.579423558710000175e-01 6.639689067080000173e-01 -5.232786681999999912e-02 9.630033082099999364e-02 8.317853388000000237e-03 1.299299133469999923e-01 3.213277887409999867e-01 7.391563986200000436e-02 -3.778470840429999922e-01 4.829690539400000038e-01 -4.086013024869999954e-01 1.393916627150000032e-01 -2.666093482999999931e-01 -2.378381250630000054e-01 -1.298734368701000008e+00 8.610048261800000435e-02 2.496899162329999922e-01 -6.820155511000000614e-02 2.046203560879999994e-01 -5.577417133290000217e-01 3.525379072300000027e-02 1.734285944000000038e-02 -1.290548556749999964e-01 -4.539320379949999817e-01 -1.507337861500000070e-02 -1.802253893390000083e-01 4.593786172620000219e-01 -5.133574471359999558e-01 4.711796681000000181e-02 1.064665530240000019e-01 -2.871428847829999853e-01 6.814741425579999845e-01 -5.582595899540000461e-01 2.498641870739999882e-01 4.878905857399999657e-02 1.343663618640000001e-01 -4.534402735759999747e-01 3.550356384880000160e-01 1.624557531820000067e-01 3.055896271710000223e-01 4.496101365579999731e-01 1.736609584250000116e-01 -3.542215739219999882e-01 5.686891875449999745e-01 1.813961312900000122e-01 -7.163664476650000168e-01 -5.004020048920000407e-01 4.727321773909999858e-01 -2.005121651900000079e-01 3.271971089519999931e-01 1.181744205100000028e-02 1.968592802330000058e-01 3.265070729200000160e-02 8.540121663990000167e-01 4.849818381989999816e-01 -2.394509136309999897e-01 2.776780314160000041e-01 -2.292110203849999917e-01 3.891960525659999837e-01 -2.998953508830000114e-01 2.583972771020000003e-01 1.085263695519999988e-01 -2.851179700499999886e-02 2.732754144010000052e-01 -4.402491410559999929e-01 -3.680560282529999894e-01 -1.546219862210000129e-01 9.598466583100000171e-02 -2.614199559959999863e-01 -5.824231312169999564e-01
-1.413192991299999923e-01 1.217483275629999973e-01 -3.857885035779999860e-01 -2.866174121919999873e-01 1.656383199429999897e-01 -3.645758378989999993e-01 4.769389748739999990e-01 -2.709739268860000272e-01 1.296276299870000037e-01 -2.306886241430000095e-01 3.996954086069999801e-01 -1.457134576490000111e-01 -2.342463081779999901e-01 -5.247707725179999727e-01 2.795220949309999980e-01 3.153516535590000225e-01 1.175775285870000048e-01 -8.784964715000000146e-02 3.934744401940000191e-01 2.988824177859999986e-01 -7.667049952399999924e-02 -1.275969588729999882e-01 -3.722306623999999814e-02 3.383127332929999898e-01 -8.215380576530000312e-01 -4.293594264600000127e-02 9.214936095799999838e-02 -2.957954003989999858e-01 1.036092483416999999e+00 -7.792379155980000416e-01 3.946836724469999780e-01 -4.503878339749999848e-01 -1.239924705510000030e-01 -5.885266760709999545e-01 2.451158518369999928e-01 5.216613652239999732e-01 4.342267575509999866e-01 9.800322511100000300e-01 4.683422852570000017e-01 -5.319269162830000397e-01 -3.563452752490000042e-01 4.078461882070000266e-01 3.934472715530000220e-01 -3.089372027039999913e-01 4.794761976690000149e-01 2.483876294079999936e-01 3.029407008159999970e-01 -6.751564155779999910e-01 -1.844383380730000022e-01 -7.168819065849999506e-01 4.468466659829999910e-01 4.976830675930000170e-01 2.106872858300000081e-02 -9.100693879799999497e-02 -3.983794577500000128e-02 2.439479165099999944e-02 2.078447807319999951e-01 2.925171415899999877e-02 -4.720948528269999778e-01 1.286687926699999970e-02 -4.780253789489999905e-01 2.590658577200000146e-02 -1.230442730580000033e-01 -1.607086885469999893e-01 -1.034744492023000006e+00 2.185886631010000025e-01 1.225967446860000004e-01 -2.202446303710000053e-01 -2.063767589190000085e-01 -2.474696776430000134e-01 -1.024505003669999997e-01 -1.303144769279999948e-01 -9.848508407000000631e-02 -5.358331273849999965e-01 -2.800281528499999964e-02 -2.229899693890000090e-01 1.525922465439999987e-01 1.606992976530000061e-01 2.290965083499999985e-02 -2.424237649229999958e-01 -7.499109852400000220e-02 6.152912137129999959e-01 5.429575631890000142e-01 3.037903617430000036e-01 2.958877200700000057e-02 2.884098214460000253e-01 -6.741895524650000082e-01 -3.380449744390000011e-01 1.877416572670000117e-01 2.567163003460000148e-01 4.973150355209999818e-01 -3.108239786429999874e-01 -4.666631207759999733e-01 5.669767064370000442e-01 -2.060176109999999874e-04 2.806453851440000036e-01 -1.157429062689999955e-01 2.652997508100000124e-01 -2.665883024280000235e-01 1.110754126040000012e-01 -5.895547611850000536e-01 2.055974936930000108e-01 -1.585632085800000105e-02 5.273323516290000512e-01 1.105678139799999987e-01 -9.739388780900000431e-02 5.901359674099999897e-02 -2.460754511430000013e-01 4.028536638490000099e-01 2.025610442159999913e-01 -5.897724642300000014e-02 -5.535634219399999945e-02 1.501918886300000061e-02 3.960141152550000210e-01 -3.186834405249999724e-01 -4.139565317180000092e-01 -6.034368412599999676e-02 7.923622647500000449e-02 6.507679674790000091e-01 -2.515571460259999892e-01
2.050673313799999953e-02 7.420022760399999640e-02 -3.353746304570000003e-01 -1.316262457790000062e-01 2.059972309160000015e-01 -4.127808602090000112e-01 6.314999755600000375e-01 -3.705802012120000266e-01 1.968189562090000011e-01 -5.153864201140000434e-01 6.093224061580000406e-01 -1.665673199970000018e-01 -2.112740090209999921e-01 -5.188775850929999711e-01 2.646264733300000005e-01 1.211682736700000068e-01 1.281583539170000063e-01 -1.354252226800000125e-01 5.421479722819999569e-01 2.225953544679999951e-01 -4.788937326099999836e-02 -2.401013961809999875e-01 9.323350959600000543e-02 2.872263652540000267e-01 -3.404190959150000251e-01 -2.862995170820000213e-01 3.492804173610000174e-01 -4.952483856809999918e-01 -3.067413425600000118e-02 -6.148833586980000376e-01 6.746584495999999667e-03 -1.347815022870000046e-01 -3.482505765250000218e-01 -2.768985546059999914e-01 4.813350305810000229e-01 6.896842090010000259e-01 6.623031774490000245e-01 7.534611555750000411e-01 -1.823058524789999968e-01 -2.060218966719999933e-01 1.699649619099999898e-01 7.160883510909999972e-01 2.943266087160000266e-01 4.661738761800000158e-02 -1.423969154999999917e-02 3.055470110799999861e-01 -1.509910318899999881e-01 -3.968146518260000088e-01 -1.236225345329999975e-01 -5.810797302679999721e-01 -3.181987723220000008e-01 -4.597535892330000262e-01 1.224394451509999981e-01 -2.708192695070000267e-01 -5.342734210800000050e-02 -3.183687712459999930e-01 1.713069504099999987e-02 -6.971427261399999742e-02 -4.200873341829999830e-01 2.324808071899999926e-02 2.939655821999999970e-03 1.635702123300000060e-02 5.994349314900000031e-02 -2.407587503600000164e-02 5.781140717460000467e-01 3.638053274720000063e-01 -1.046675897910000069e-01 -3.318412960279999990e-01 -8.899675722699999791e-02 2.490975526070000057e-01 -3.099134629140000152e-01 -2.284645183469999896e-01 7.396263117000000109e-03 -2.005849673400000033e-01 2.314126342199999964e-02 -1.776916200039999894e-01 -2.965407950330000153e-01 3.701536662720000259e-01 -5.569048380000000270e-02 -6.852616718499999759e-01 2.055914417409999972e-01 1.660435793410000027e-01 4.732535565770000230e-01 2.563469153640000053e-01 -3.869235087100000164e-02 4.935365020710000272e-01 -1.883715302719999873e-01 -2.376961753600000116e-01 1.648792014390000060e-01 1.486348439069999916e-01 3.233966937839999889e-01 -1.521720291149999960e-01 -4.325564507010000170e-01 4.229186496449999777e-01 -1.303355982820000036e-01 6.196785605090000537e-01 8.170197872899999381e-02 9.536666569999999524e-03 -2.837646410310000200e-01 -1.817578373450000062e-01 -1.975923815289999941e-01 2.152696434199999898e-01 -8.786758616400000554e-02 -1.220368040139999943e-01 -1.900706179820000064e-01 1.172186622560000002e-01 -2.421254018210000081e-01 -1.309535866400000081e-01 2.854750513900000120e-01 3.559525599719999822e-01 -3.866173497850000085e-01 -2.831613341509999771e-01 7.269890504900000661e-02 1.019337222320000069e-01 5.584621470799999710e-02 -3.179439174090000209e-01 4.325430672100000207e-02 1.851395719100000156e-02 7.264345847019999525e-01 2.214882992789999894e-01
1.159262192280000048e-01 -4.597037326600000168e-02 -2.703639489490000103e-01 5.598254081899999707e-02 3.186345529629999729e-01 -4.643369760759999965e-01 7.930657481599999725e-01 -3.168787472430000252e-01 2.706584448980000057e-01 -7.455532009140000138e-01 8.232342741510000339e-01 -3.263725133429999925e-01 -1.101074433689999965e-01 -5.328134183349999553e-01 3.534012658690000031e-01 -8.466900812800000342e-02 1.701558939170000062e-01 -2.892735879209999972e-01 6.162948618169999948e-01 1.514725204569999928e-01 7.737664189100000589e-02 -3.456720866399999870e-01 1.304583325829999918e-01 2.414891071489999874e-01 2.320228527909999894e-01 -5.539775486419999950e-01 3.293980435689999875e-01 -3.352551479140000179e-01 -3.916015705449999995e-01 -3.052999478610000095e-01 -4.696548184329999986e-01 7.987107753100000651e-02 -2.950629409639999867e-01 2.090849728230000093e-01 4.514069622519999991e-01 5.343881971689999899e-01 4.190298957199999896e-01 4.342589101299999810e-02 -1.092926547743999999e+00 3.114497110769999799e-01 5.419271291989999906e-01 7.073281492499999823e-01 -1.903564834700000041e-02 7.968823936319999746e-01 -2.134136623810000133e-01 4.765108971800000037e-02 -4.664242793989999969e-01 6.513107272199999964e-02 -2.173300377499999894e-02 -2.291384278699999943e-01 -7.341488030139999843e-01 -1.060354752035999937e+00 1.501558790480000127e-01 -3.210392360859999905e-01 -7.180307392000000177e-02 -4.464430906860000214e-01 -1.182543840620000064e-01 -3.257019060770000030e-01 -2.641153341840000168e-01 3.239850769899999677e-02 6.122863346010000152e-01 7.497805428699999553e-02 1.827101236529999895e-01 2.700948758999999894e-02 1.273137134121999914e+00 2.450262865739999962e-01 -2.763370580930000209e-01 -2.489387080469999958e-01 3.992693024200000274e-01 5.643829237090000062e-01 -4.515076382950000133e-01 -1.796588004999999932e-01 1.331096823479999969e-01 1.450328227400000114e-01 9.740068953300000387e-02 -1.794677110100000028e-02 -6.212915400990000059e-01 1.552341108570000072e-01 6.011599419099999952e-02 -7.648337415939999717e-01 4.014627907989999911e-01 -3.627569922039999839e-01 -5.646824348300000240e-02 1.075400956480000031e-01 -1.528163243740000010e-01 6.464221793709999941e-01 8.358977463640000494e-01 7.872499956100000029e-02 5.395575617000000074e-02 1.067802746000000025e-01 -2.419872790999999870e-02 3.491409829770000250e-01 -2.381139571570000113e-01 2.114984110769999870e-01 -1.692889238339999880e-01 1.741358235819999989e-01 2.127340001380000067e-01 -2.208753844319999993e-01 -2.416080388190000039e-01 -3.091060820309999846e-01 5.699977131519999851e-01 2.125477950730000065e-01 -1.191159189320000061e-01 -6.731110908320000474e-01 -2.933415297990000226e-01 2.287376599819999912e-01 -4.616965425339999984e-01 1.130844047030000049e-01 6.323607574799999798e-02 8.376972451099999606e-02 -4.850388042200000083e-01 -3.790257522259999901e-01 1.478743970989999934e-01 -4.361474282999999730e-01 2.727125849509999811e-01 -1.291619407300000077e-02 1.339169090060000067e-01 -3.421232962399999716e-02 -7.364287378400000139e-02 5.278253241670000095e-01
7.430484521600000392e-02 -7.507929452700000394e-02 -1.329242439230000072e-01 1.622235612300000074e-01 3.649871374349999975e-01 -5.340410723830000261e-01 9.191230939579999593e-01 -2.647974175200000224e-01 3.071041563810000263e-01 -8.547587589730000213e-01 1.047758336815000080e+00 -3.892288350709999789e-01 -4.313256436699999807e-02 -5.189420710550000093e-01 4.100128135109999961e-01 -1.395279774079999924e-01 1.336733538040000002e-01 -4.655822539610000033e-01 5.963557998559999573e-01 1.850445775900000020e-02 2.162878209619999992e-01 -3.274936489340000145e-01 1.330560399900000135e-01 1.660856350050000096e-01 4.651498560419999873e-01 -7.052522933579999931e-01 1.654746359010000056e-01 -4.105275624999999914e-03 -2.083779672309999942e-01 9.166002842800000106e-02 -7.285306941429999794e-01 9.427097404699999461e-02 -1.570407536320000130e-01 6.493310244900000194e-01 -1.758041034779999900e-01 2.716498461349999838e-01 4.158793316599999901e-02 3.048702811000000151e-03 -1.278693082606999987e+00 6.781530275529999985e-01 5.198513628519999541e-01 1.375025512620000057e-01 -4.183685910459999935e-01 8.764657021420000360e-01 7.083454133500000083e-02 -2.060118837540000081e-01 -3.632171276710000063e-01 1.616443477030000131e-01 8.697225145100000165e-02 1.776546679259999872e-01 -3.121486537579999943e-01 -1.950425515489999928e-01 5.360009285200000029e-02 -2.430734054929999943e-01 -1.134651177919999976e-01 -1.200944010139999990e-01 -1.601778580640000060e-01 -5.608372030620000226e-01 -2.208210015700000015e-02 -4.124302209440000033e-01 7.030270359350000442e-01 3.680201927500000025e-02 2.200504952719999907e-01 2.543875771000000084e-03 5.370571066710000396e-01 -3.834830281999999924e-02 -2.810743075930000057e-01 6.998532905899999823e-02 5.595712730599999851e-01 4.410791386590000029e-01 -3.656615761570000123e-01 -4.746394002000000126e-03 1.905493344610000028e-01 1.137184866779999970e-01 1.501657789380000108e-01 1.408572804010000123e-01 -5.877412543150000168e-01 1.326095158310000022e-01 2.446103663549999974e-01 -2.963202577110000124e-01 3.504972446440000056e-01 -7.092311228440000281e-01 -1.037253935789999998e-01 -1.095423036069999995e-01 -2.089853357220000096e-01 5.283691941629999889e-01 9.685899693739999927e-01 -2.495881799580000060e-01 -1.380427583770000022e-01 1.746469686690000078e-01 -2.893031042579999879e-01 2.328817954430000003e-01 1.959862714199999897e-02 -6.122624184799999730e-02 -1.557615592780000058e-01 -8.298845741599999992e-02 3.868360241289999779e-01 -3.341389503789999882e-01 -2.017746537360000092e-01 -1.521335593990000012e-01 6.663285273260000086e-01 1.090484929779999973e-01 -1.062641324929999992e-01 -8.157773772030000314e-01 -4.133955898409999996e-01 2.168388031169999897e-01 -4.450218737719999762e-01 3.161420399400000081e-01 -2.276762408780000080e-01 -1.231458776000000054e-02 -2.409412638519999872e-01 -2.295706940009999975e-01 2.848477594420000258e-01 -5.113063825360000259e-01 1.570037405580000101e-01 4.688785275710000144e-01 2.236039131179999861e-01 -5.021980670299999727e-02 -6.535872095150000449e-01 4.656030320580000215e-01
-2.916330509399999923e-02 3.193309965700000252e-02 2.779649976900000138e-02 2.199662011050000088e-01 2.920170974399999841e-01 -6.012779584380000264e-01 1.023438737411999977e+00 -2.382435474350000082e-01 2.961921789829999874e-01 -9.143029446079999900e-01 1.215713285025999957e+00 -2.219820471520000116e-01 -1.100129154560000044e-01 -4.754324401039999870e-01 3.672034975039999982e-01 -5.960649132100000192e-02 -5.332472884000000364e-03 -5.035288831549999955e-01 4.730593383269999785e-01 -1.242570577299999951e-01 2.471584545099999863e-01 -1.274100392209999988e-01 1.281271879189999907e-01 8.369550413300000380e-02 4.423073090879999780e-01 -5.154713761500000491e-01 -4.792012530900000011e-02 3.005639429740000201e-01 2.143206085450000131e-01 5.558820019300000359e-01 -6.083874009109999648e-01 -1.638977804969999896e-01 8.374146019999999550e-04 7.559701861409999779e-01 -9.001495004130000144e-01 1.065932308049999944e-01 -1.071545807870000061e-01 7.695656085400000013e-01 -4.188376056240000200e-01 5.996666351039999787e-01 1.219051214909999958e-01 -9.289170856309999502e-01 -5.592049369329999964e-01 -2.016795456949999898e-01 4.061023362019999805e-01 -4.192477032490000144e-01 1.216890341839999973e-01 -2.396461238189999954e-01 2.520146407850000214e-01 5.321631609489999581e-01 2.387540521790000037e-01 9.166631712380000074e-01 -9.419542749300000017e-02 -9.879735093300000270e-02 -1.327146967750000017e-01 1.041565381590000006e-01 -1.533911009220000066e-01 -6.006955318740000438e-01 2.179654597519999903e-01 -6.444581228629999714e-01 9.317369578900000504e-02 -1.010293573539999962e-01 2.478289645370000127e-01 -5.866761685000000150e-03 -8.835972741059999747e-01 -3.960678718980000235e-01 -9.829450996199999568e-02 3.891358676710000020e-01 1.338739948340000041e-01 3.399483853299999775e-02 -2.324799572899999972e-02 1.775885931110000038e-01 1.508784332420000096e-01 -5.065171604000000272e-02 1.552607277979999867e-01 2.080170187589999997e-01 -2.435740554599999941e-01 3.056201105740000146e-01 1.057661990429999976e-01 4.077370488229999923e-01 2.042559853310000062e-01 -5.849413091520000441e-01 1.696628548839999862e-01 -3.007641652579999825e-01 -2.158888914179999952e-01 6.842684967600000390e-02 -1.255436852540000037e-01 -5.263008635389999634e-01 -3.464998168189999950e-01 2.566940409030000203e-01 -4.057282370349999945e-01 -4.196032368600000062e-01 2.435702905259999884e-01 -2.237085329909999920e-01 -1.467075797269999926e-01 9.536086868399999694e-02 3.676663657970000165e-01 -3.458528172840000248e-01 -1.864280428610000095e-01 1.545157388420000111e-01 1.021051614400000050e-02 -4.888397423299999794e-02 -6.196632455000000012e-02 -4.054372853039999725e-01 -4.413894578540000224e-01 1.177703773780000018e-01 -1.711293835640000094e-01 3.435656722670000218e-01 -4.759484431720000241e-01 1.389078902820000128e-01 2.943350128489999884e-01 1.434893465900000109e-01 3.628332228430000139e-01 2.431192971070000042e-01 -6.219952534000000414e-03 7.976762160400000523e-01 2.963977422999999889e-01 -8.615780388100000020e-02 -2.381570013759999882e-01 3.014712976499999905e-02
-8.825519095000000647e-02 1.467648639019999979e-01 5.238589737499999704e-02 3.085772397100000064e-01 1.777127082359999943e-01 -6.204537906149999449e-01 1.107654608110000050e+00 -1.188605654510000026e-01 2.732785600150000049e-01 -9.770700723909999663e-01 1.240322209234999917e+00 9.037770045999999474e-03 -2.220514419119999916e-01 -5.104071043250000272e-01 3.245199194789999964e-01 9.110115454999999710e-03 -1.509302620129999994e-01 -3.557561927449999772e-01 3.417432804960000015e-01 -1.145590857649999988e-01 1.414451243440000006e-01 1.177380975670000024e-01 3.369892765799999829e-02 1.055299174050000066e-01 2.946813195319999967e-01 -1.398525127670000034e-01 -3.101802333409999779e-01 5.067160333939999539e-01 8.909086602000000632e-02 8.498148901199999994e-01 -1.233425522500000010e-01 -4.824065444119999824e-01 3.762247110690000174e-01 3.773343579999999808e-01 -9.623267844549999728e-01 -2.144683110110000013e-01 -2.826629815250000233e-01 1.189401316232000072e+00 2.924265897509999990e-01 3.894025896100000023e-02 -2.950419522170000253e-01 -1.310896724075000019e+00 -2.622043060379999901e-01 -1.047601949441999913e+00 -7.877773490099999887e-02 -2.911857997080000149e-01 5.088935972220000048e-01 -6.257501204600000033e-01 4.816536538980000226e-01 7.312279924979999679e-01 2.188658128440000017e-01 4.764279994169999810e-01 -1.979397383919999920e-01 -3.315074759899999668e-02 -8.830613000800000001e-02 -6.276389248399999454e-02 -1.506854102880000046e-01 -3.301780346809999878e-01 3.303811083289999728e-01 4.808802201899999712e-02 -4.710219863560000109e-01 -1.545232634869999899e-01 2.452809404300000107e-01 6.252945962000000524e-02 -1.210190176652000016e+00 -5.295350255790000071e-01 1.946863796309999950e-01 4.837361769269999945e-01 -2.585428254969999728e-01 -4.059716035179999905e-01 3.170029988120000031e-01 2.493257208090000066e-01 5.194350342799999853e-02 -5.075386448000000252e-03 4.972164037400000208e-02 1.918244184579999956e-01 1.029791637080000044e-01 1.813158655740000069e-01 -3.022286845480000039e-01 8.462621589540000322e-01 1.091013675229999952e-01 -7.127812111900000414e-02 2.963286983999999843e-03 -3.096140747009999972e-01 -2.324098492199999921e-01 -4.403835629669999863e-01 -6.543063452480000208e-01 1.336202688650000026e-01 -4.380485299970000024e-01 1.994221960950000039e-01 -3.334941324949999841e-01 -4.875413658839999886e-01 2.463230301369999931e-01 -2.264518985210000057e-01 -1.000747118160000004e-01 -4.918899865700000068e-02 -1.072895380790000047e-01 -2.279506998620000058e-01 -1.618585342649999925e-01 4.098116563749999997e-01 -4.832628816499999758e-01 -8.509570828899999662e-02 -3.129655472299999741e-02 2.084799995080000024e-01 3.573315189040000006e-01 1.004622321200000085e-02 2.127426969379999921e-01 1.533935919759999988e-01 -5.753194942089999708e-01 -4.325580840399999988e-02 7.377499563549999584e-01 4.906278201029999897e-01 2.920912056939999890e-01 6.900359198419999673e-01 -3.412694538700000030e-02 6.696542424610000266e-01 3.335896917389999938e-01 -1.495213765910000103e-01 8.959125956999999807e-02 -4.959478769539999998e-01