2.844120153052109856e+00 2.557368319208484841e+00 -6.212613528343051694e-01 2.557368319208484841e+00 -6.600485337513388728e+00 1.471779484947849603e+00 -6.212613528343051694e-01 1.471779484947849603e+00 -7.926523650727133052e+00
3.591493120421820340e+00 2.425554839218328596e+00 -7.948746787505601707e-01 2.425554839218328596e+00 -1.638043817353740605e+00 1.348108465630844188e+00 -7.948746787505601707e-01 1.348108465630844188e+00 -5.081406107393972249e+00
4.853479482453974647e+00 2.286850974553095384e+00 -9.584368457901883964e-01 2.286850974553095384e+00 1.817863311970313589e+00 1.434964372835901170e+00 -9.584368457901883964e-01 1.434964372835901170e+00 -3.685188434532450152e+00
4.835705814370294675e+00 2.170451820299028167e+00 -1.099837430372093916e+00 2.170451820299028167e+00 1.044957077657024502e+00 1.372342781023393687e+00 -1.099837430372093916e+00 1.372342781023393687e+00 -4.910216337900512151e+00
5.199596310824093237e+00 2.004585567137991298e+00 -1.221358863993601274e+00 2.004585567137991298e+00 -1.135851798967632220e+00 1.100500705424957149e+00 -1.221358863993601274e+00 1.100500705424957149e+00 -5.890122602338695224e+00
6.330976594767371957e+00 1.891528710629329035e+00 -1.197929064737019766e+00 1.891528710629329035e+00 -1.029473148040537689e+00 1.016663772475279393e+00 -1.197929064737019766e+00 1.016663772475279393e+00 -5.127325011675314848e+00
5.893718963684470680e+00 2.080243476227040311e+00 -1.045996007499957026e+00 2.080243476227040311e+00 -4.092968765674699916e-01 1.169436881423075558e+00 -1.045996007499957026e+00 1.169436881423075558e+00 -4.090998388084319259e+00
4.060165991492644011e+00 2.477512916365189888e+00 -9.349317288024325823e-01 2.477512916365189888e+00 -8.427123461087019374e-01 1.628706479195583423e+00 -9.349317288024325823e-01 1.628706479195583423e+00 -3.067561674414947870e+00
2.174288923631571002e+00 2.690210301699115014e+00 -8.781682343874626095e-01 2.690210301699115014e+00 -2.253531855201566181e+00 2.325011344989991624e+00 -8.781682343874626095e-01 2.325011344989991624e+00 -9.418703436009628893e-01
1.503595332353824920e+00 2.605758780584730427e+00 -6.906820606259361783e-01 2.605758780584730427e+00 -4.719246216458484966e+00 2.750968013983838389e+00 -6.906820606259361783e-01 2.750968013983838389e+00 6.999256849334292707e-02
1.742444099705335203e+00 2.564593158563326369e+00 -5.597927840554052237e-01 2.564593158563326369e+00 -7.031458829402512656e+00 2.574428940332518234e+00 -5.597927840554052237e-01 2.574428940332518234e+00 -2.447756297004527681e+00
4.021459409992181655e+00 2.684829359898945000e+00 -6.435908187253139845e-01 2.684829359898945000e+00 -7.662246316901202725e+00 2.260030999164206023e+00 -6.435908187253139845e-01 2.260030999164206023e+00 -4.664436852764966446e+00
7.041951124901006054e+00 2.939587891339797476e+00 -9.808436976078021008e-01 2.939587891339797476e+00 -5.717826942000953316e+00 2.151728354330746384e+00 -9.808436976078021008e-01 2.151728354330746384e+00 -4.774184593114179087e+00
6.227751142347224267e+00 3.155986223600357743e+00 -1.177466995639550706e+00 3.155986223600357743e+00 -4.013166027432161442e+00 1.964309285216604195e+00 -1.177466995639550706e+00 1.964309285216604195e+00 -4.343426164948470891e+00
2.816944401529836384e+00 3.188698313510891502e+00 -1.140330187178463905e+00 3.188698313510891502e+00 -3.260588120589194006e+00 1.789830093383862675e+00 -1.140330187178463905e+00 1.789830093383862675e+00 -4.502109791619588464e+00
1.202903040174615246e+00 2.870185349879004644e+00 -1.080526296402752884e+00 2.870185349879004644e+00 -1.641209477823546647e+00 2.184454747108825146e+00 -1.080526296402752884e+00 2.184454747108825146e+00 -3.040559634064405437e+00
1.252777804607015488e+00 2.517777433669198484e+00 -7.654362123964374431e-01 2.517777433669198484e+00 9.053204024933312333e-01 2.763616199321271782e+00 -7.654362123964374431e-01 2.763616199321271782e+00 -5.911929496059170619e-01
1.383517172989776167e+00 2.428718952532854303e+00 -2.906120414261349483e-01 2.428718952532854303e+00 2.120011818260358005e+00 3.106473126787963945e+00 -2.906120414261349483e-01 3.106473126787963945e+00 -2.085684046959342730e+00
2.730534172387191760e-01 2.436741651833097322e+00 -1.649573982282164508e-01 2.436741651833097322e+00 5.427451330651184014e-01 2.543915202363023376e+00 -1.649573982282164508e-01 2.543915202363023376e+00 -5.760499716830665307e+00
-4.394183644902555641e-01 2.558872152440697434e+00 -9.742151569999871752e-01 2.558872152440697434e+00 -1.571939701246414245e-01 1.834079520584404266e+00 -9.742151569999871752e-01 1.834079520584404266e+00 -6.784229443282980831e+00
3.646164245413382687e+00 3.036976072834010942e+00 -2.301121211882588558e+00 3.036976072834010942e+00 2.108100091261021269e+00 1.743468941350797330e+00 -2.301121211882588558e+00 1.743468941350797330e+00 -3.397940464753851142e+00
7.357144298377253477e+00 3.337803856014410986e+00 -3.064322014128803673e+00 3.337803856014410986e+00 4.504169772803185978e+00 1.535170161416378409e+00 -3.064322014128803673e+00 1.535170161416378409e+00 4.620497836836554573e-01
6.977212912857241989e+00 2.930312053844168041e+00 -3.023223721913210316e+00 2.930312053844168041e+00 5.587371749622664474e+00 8.133423162304220799e-01 -3.023223721913210316e+00 8.133423162304220799e-01 1.463479793759633107e+00
3.155288836530651952e+00 2.848830551995725102e+00 -3.598481247700433094e+00 2.848830551995725102e+00 2.838201017180097097e+00 4.720321845810917516e-01 -3.598481247700433094e+00 4.720321845810917516e-01 -1.658684876876729941e+00
-2.439047375518349270e+00 2.867448057385344029e+00 -3.913042312635736319e+00 2.867448057385344029e+00 -3.091269123334091873e+00 9.654297183542289718e-01 -3.913042312635736319e+00 9.654297183542289718e-01 -1.305296687161830116e+00
-6.357830715908451502e+00 2.830023847561711214e+00 -4.047948332372016012e+00 2.830023847561711214e+00 -8.237354372645080858e+00 4.069118661230152201e-01 -4.047948332372016012e+00 4.069118661230152201e-01 -5.661940729738463851e+00
-7.376760662979472194e+00 3.151798462281893087e+00 -4.294954758380653992e+00 3.151798462281893087e+00 -9.549780886763825194e+00 4.860384885385817810e-01 -4.294954758380653992e+00 4.860384885385817810e-01 -6.896197577646616672e+00
-7.219006143089529814e+00 3.422096681935530516e+00 -4.199261572425336375e+00 3.422096681935530516e+00 -9.189739314534064007e+00 1.116514316138330409e+00 -4.199261572425336375e+00 1.116514316138330409e+00 -7.481818394196224631e+00
-3.978624890298833261e+00 3.470462221874387243e+00 -3.431917676500560788e+00 3.470462221874387243e+00 -8.706655823445336395e+00 1.816580821186337014e+00 -3.431917676500560788e+00 1.816580821186337014e+00 -1.161915409750742789e+01
-1.916686359032869325e+00 3.606242171312239453e+00 -3.162216110327117580e+00 3.606242171312239453e+00 -8.928343064495470216e+00 2.521858379244736437e+00 -3.162216110327117580e+00 2.521858379244736437e+00 -1.652491323817242375e+01
-3.709671155271359044e-01 3.613923264681752290e+00 -3.106582370014097538e+00 3.613923264681752290e+00 -6.677523611388521019e+00 2.563550786484444455e+00 -3.106582370014097538e+00 2.563550786484444455e+00 -1.551005448944426846e+01
3.333453882603540475e+00 3.253028069416212364e+00 -2.393010254478039833e+00 3.253028069416212364e+00 -1.735718794787467045e+00 2.241634492453819405e+00 -2.393010254478039833e+00 2.241634492453819405e+00 -1.026752214874732339e+01
6.117494777099273584e+00 2.933379663831140682e+00 -1.601691428926443228e+00 2.933379663831140682e+00 2.798908357498758104e+00 1.937563395318521620e+00 -1.601691428926443228e+00 1.937563395318521620e+00 -3.453967449150265878e+00
9.477001413759259307e+00 2.907923141823535396e+00 -1.492937310030545639e+00 2.907923141823535396e+00 3.665205174997463455e+00 1.941811351665849283e+00 -1.492937310030545639e+00 1.941811351665849283e+00 2.213601033393783446e+00
1.001545190336957880e+01 2.708039297585504990e+00 -1.782863865301515638e+00 2.708039297585504990e+00 4.430977819809541529e+00 2.247305265047178313e+00 -1.782863865301515638e+00 2.247305265047178313e+00 3.700263445343625168e+00
9.740217889008846441e+00 2.543274315006084141e+00 -1.953353689272414151e+00 2.543274315006084141e+00 7.143413624281205188e+00 2.603516210698296529e+00 -1.953353689272414151e+00 2.603516210698296529e+00 1.740773264862623737e+00
7.144628327889889441e+00 3.100456850326480662e+00 -2.349154756055712667e+00 3.100456850326480662e+00 7.703934975553818454e+00 2.928075870870684660e+00 -2.349154756055712667e+00 2.928075870870684660e+00 8.101796705306997248e-01
3.911640369024974362e+00 3.695037746149969937e+00 -2.671815395219119260e+00 3.695037746149969937e+00 6.594823842319348373e+00 2.758714954014153786e+00 -2.671815395219119260e+00 2.758714954014153786e+00 -1.431668040832692501e+00
9.905021268046252381e-01 3.590690421037634028e+00 -2.649726512882440321e+00 3.590690421037634028e+00 2.376785900325273371e+00 2.509117512003022021e+00 -2.649726512882440321e+00 2.509117512003022021e+00 -3.462605250958563197e+00
7.223527212152992816e-02 2.895999660775895546e+00 -2.378109871752300819e+00 2.895999660775895546e+00 -2.606401720071154671e+00 2.532379388383025010e+00 -2.378109871752300819e+00 2.532379388383025010e+00 -3.448893147646991952e+00
-5.941962536651901328e-01 1.888668170394195434e+00 -1.862351329124167787e+00 1.888668170394195434e+00 -6.308492530910560170e+00 2.244967458844417507e+00 -1.862351329124167787e+00 2.244967458844417507e+00 -4.028744188428267314e+00
-3.234849085235508959e+00 8.398464304757202736e-01 -1.377952247525878304e+00 8.398464304757202736e-01 -8.671716380545174019e+00 1.786932100213040719e+00 -1.377952247525878304e+00 1.786932100213040719e+00 -4.776554836725549258e+00
-5.503015229201428937e+00 4.085717065915061563e-01 -9.085925064309327004e-01 4.085717065915061563e-01 -9.228058099100486800e+00 1.745206169209337466e+00 -9.085925064309327004e-01 1.745206169209337466e+00 -5.422983980245974500e+00
-4.560097420792478040e+00 6.667190578246278143e-01 -1.681866178015859192e-01 6.667190578246278143e-01 -6.498179557843129395e+00 1.582874094533180953e+00 -1.681866178015859192e-01 1.582874094533180953e+00 -6.388335441257842362e+00
-1.308290171546208525e+00 1.072631586176836516e+00 5.177903624045889774e-01 1.072631586176836516e+00 -3.381761378513486349e+00 1.136220069737598815e+00 5.177903624045889774e-01 1.136220069737598815e+00 -5.739626674196034450e+00
2.340746634722742137e+00 1.498125858270952904e+00 8.056849540821580113e-01 1.498125858270952904e+00 -2.977056355179085845e+00 9.551242543208832148e-01 8.056849540821580113e-01 9.551242543208832148e-01 -3.399870226996812406e+00
6.077995967030866531e+00 1.858388348454397043e+00 7.196733530096850462e-01 1.858388348454397043e+00 -3.503303439519544149e+00 1.076137898907383983e+00 7.196733530096850462e-01 1.076137898907383983e+00 -9.233739713784646641e-01
8.219115223695125039e+00 2.043329173432500756e+00 5.948808374240820429e-01 2.043329173432500756e+00 -3.190499179870640134e+00 1.306199573665911551e+00 5.948808374240820429e-01 1.306199573665911551e+00 6.297509104633959576e-02
7.699191722352079381e+00 2.549070374752820722e+00 1.340303493121121070e-01 2.549070374752820722e+00 -2.185152107905576457e+00 1.628686681881802212e+00 1.340303493121121070e-01 1.628686681881802212e+00 -9.098631866376291066e-01
6.008306215524582328e+00 3.025953277699969135e+00 -7.097099959266000013e-01 3.025953277699969135e+00 -1.815144647424392188e+00 1.730027964490427728e+00 -7.097099959266000013e-01 1.730027964490427728e+00 -3.306712650056215619e+00
5.285073073295126100e+00 3.201026173906704742e+00 -1.445252876591855307e+00 3.201026173906704742e+00 -6.113696844160251276e-01 1.692414047920622666e+00 -1.445252876591855307e+00 1.692414047920622666e+00 -5.103466691197242611e+00
4.525901437449631359e+00 3.196581975997199621e+00 -1.815326994171425845e+00 3.196581975997199621e+00 -4.814345124129543185e-01 1.561335075315825938e+00 -1.815326994171425845e+00 1.561335075315825938e+00 -5.470317691130087923e+00
2.964154596991960489e+00 2.775545334797231423e+00 -2.039389763867246685e+00 2.775545334797231423e+00 -6.790768381150531496e-01 1.430541495769343419e+00 -2.039389763867246685e+00 1.430541495769343419e+00 -4.791046935419743136e+00
2.949694140945751553e+00 2.431375917164925404e+00 -2.203368089885573422e+00 2.431375917164925404e+00 -2.511527593613417930e-01 1.426448620567738690e+00 -2.203368089885573422e+00 1.426448620567738690e+00 -4.022392839900056138e+00
4.877442683199051388e+00 2.494141310586022620e+00 -2.249355300475440966e+00 2.494141310586022620e+00 8.627087865865247229e-01 1.308732027682115495e+00 -2.249355300475440966e+00 1.308732027682115495e+00 -2.263735354389959653e+00
6.422372389332719145e+00 2.955098205332332917e+00 -2.311627393079322079e+00 2.955098205332332917e+00 2.890418084808726640e+00 1.167585766238956824e+00 -2.311627393079322079e+00 1.167585766238956824e+00 -4.611004387153617712e-01
6.124862040526123153e+00 3.603374271385103800e+00 -2.571967584202103474e+00 3.603374271385103800e+00 3.983666824877351242e+00 1.135637137919714545e+00 -2.571967584202103474e+00 1.135637137919714545e+00 6.122880282388442064e-01
3.999687614864522622e+00 4.021261918077754238e+00 -2.924619777526826336e+00 4.021261918077754238e+00 2.358978720751362168e+00 9.138635278375534243e-01 -2.924619777526826336e+00 9.138635278375534243e-01 1.161582166936014904e+00
1.837753604111548311e+00 4.223681906385186480e+00 -3.123510990060318182e+00 4.223681906385186480e+00 -8.322687443420039299e-01 4.617249611787135888e-01 -3.123510990060318182e+00 4.617249611787135888e-01 -3.726971819695840682e-01
3.899197001651734662e-01 4.432632308356149409e+00 -3.134458315441895682e+00 4.432632308356149409e+00 -3.190190061072673444e+00 2.901093206355953025e-01 -3.134458315441895682e+00 2.901093206355953025e-01 -2.008706449392409166e+00
-1.064788384872469518e+00 4.561671790465495313e+00 -3.034657551121973107e+00 4.561671790465495313e+00 -5.079691363066419107e+00 5.400124233227793225e-01 -3.034657551121973107e+00 5.400124233227793225e-01 -2.429747227930870501e+00
-3.000883133429104621e+00 4.524432189620028133e+00 -2.826831797640763089e+00 4.524432189620028133e+00 -6.583785041003765492e+00 1.100873002497636088e+00 -2.826831797640763089e+00 1.100873002497636088e+00 -2.059809491862282016e+00
-4.798714603478023477e+00 4.785031126603513485e+00 -2.694270399890045020e+00 4.785031126603513485e+00 -8.668870928300494327e+00 1.568073567095086940e+00 -2.694270399890045020e+00 1.568073567095086940e+00 -3.992711434815340521e+00
-5.029609808522809367e+00 5.337553880809494444e+00 -2.640469950754906314e+00 5.337553880809494444e+00 -1.020693557774265336e+01 1.761841458949138906e+00 -2.640469950754906314e+00 1.761841458949138906e+00 -6.616568956386920775e+00
-3.380161114901875763e+00 5.621436890909524919e+00 -2.783836174861539003e+00 5.621436890909524919e+00 -8.992080197255845064e+00 2.066752928260840783e+00 -2.783836174861539003e+00 2.066752928260840783e+00 -7.272719896306004017e+00
8.319489479055461878e-01 5.385693893939974330e+00 -2.806519488413319774e+00 5.385693893939974330e+00 -4.105622864320376486e+00 2.218636605875734968e+00 -2.806519488413319774e+00 2.218636605875734968e+00 -4.952889131852508342e+00
3.817855165102150394e+00 4.859924826917185747e+00 -2.351512625982279836e+00 4.859924826917185747e+00 2.538019038177071529e+00 1.953586122461568264e+00 -2.351512625982279836e+00 1.953586122461568264e+00 -1.474715160001868419e+00
4.109787738704371307e+00 4.173362780845856435e+00 -1.863203423732087805e+00 4.173362780845856435e+00 7.024327943987998424e+00 1.872999070524886456e+00 -1.863203423732087805e+00 1.872999070524886456e+00 -4.429913649059880609e-01
5.742792018799003806e+00 3.558255805860819354e+00 -1.782318655947985109e+00 3.558255805860819354e+00 8.960194314125622839e+00 2.461862479700556605e+00 -1.782318655947985109e+00 2.461862479700556605e+00 7.029264935782591518e-03
8.646878790289886041e+00 3.286841624889580427e+00 -1.857790746840329632e+00 3.286841624889580427e+00 8.378252891183141315e+00 3.307782082195885209e+00 -1.857790746840329632e+00 3.307782082195885209e+00 2.442784245921895414e-01
9.639428600240883327e+00 2.572186235542049282e+00 -2.104392636444754494e+00 2.572186235542049282e+00 4.879463084216175695e+00 3.848358577896669352e+00 -2.104392636444754494e+00 3.848358577896669352e+00 -2.356851413911350002e-01
7.236913737984418837e+00 1.792859913910891612e+00 -2.318121248081542962e+00 1.792859913910891612e+00 1.327986914526811058e+00 3.824329445154811769e+00 -2.318121248081542962e+00 3.824329445154811769e+00 -8.558043491681855963e-01
6.299036994130155165e+00 2.075613236792460015e+00 -2.195471826260672721e+00 2.075613236792460015e+00 -1.856917394681792288e+00 3.359717064749787596e+00 -2.195471826260672721e+00 3.359717064749787596e+00 -4.205619999888560834e+00
5.427297663554103480e+00 2.480428020450820004e+00 -1.813011705963646136e+00 2.480428020450820004e+00 -4.399019514061348168e+00 2.470472258444473823e+00 -1.813011705963646136e+00 2.470472258444473823e+00 -6.803166143389131726e+00
-9.292363771529205119e-01 2.349303677645961042e+00 -1.228475054781000830e+00 2.349303677645961042e+00 -8.436851837092945061e+00 1.980055878682027259e+00 -1.228475054781000830e+00 1.980055878682027259e+00 -6.785096485129938237e+00
-7.655482673214609513e+00 2.177754038181858753e+00 -1.118390601710424065e-01 2.177754038181858753e+00 -1.267993263579463914e+01 2.264536287923525570e+00 -1.118390601710424065e-01 2.264536287923525570e+00 -2.809474667383218272e+00
-1.043319464143945652e+01 1.511914712997811217e+00 7.466854719011779551e-01 1.511914712997811217e+00 -1.339148274437176767e+01 2.935401778665249761e+00 7.466854719011779551e-01 2.935401778665249761e+00 -3.851854810410923480e-01
-8.884225124239199189e+00 9.738325125636294599e-01 7.115288482719631658e-01 9.738325125636294599e-01 -1.187814612573633077e+01 4.315890648018208431e+00 7.115288482719631658e-01 4.315890648018208431e+00 -3.222576031220729664e+00
-5.922308606454117275e+00 1.376705863114840334e+00 -1.569286967007954836e-01 1.376705863114840334e+00 -1.036651050710756827e+01 4.984730808172941785e+00 -1.569286967007954836e-01 4.984730808172941785e+00 -8.756646144899221440e+00
-1.110802605859923853e+00 1.729523946703127146e+00 -1.629636754699209211e+00 1.729523946703127146e+00 -7.788999224371591090e+00 3.967238572063438440e+00 -1.629636754699209211e+00 3.967238572063438440e+00 -1.271325588889444091e+01
3.305691655466048040e+00 2.090082968164242772e+00 -1.740895534906689690e+00 2.090082968164242772e+00 -5.770640022410669090e+00 2.747665185657595543e+00 -1.740895534906689690e+00 2.747665185657595543e+00 -9.798563154115703000e+00
9.202596094665663529e+00 3.152694578788146185e+00 -1.049994561396744963e+00 3.152694578788146185e+00 -5.240814143674078274e+00 2.011496179185993327e+00 -1.049994561396744963e+00 2.011496179185993327e+00 -2.787990580367378346e+00
1.690006588259282339e+01 3.642483805500777994e+00 -1.029738590642526042e+00 3.642483805500777994e+00 -3.322191355172778859e+00 1.278999674903641415e+00 -1.029738590642526042e+00 1.278999674903641415e+00 6.111669547809388536e-01
1.830299391633079509e+01 3.403315426612575134e+00 -1.515068631859343817e+00 3.403315426612575134e+00 -1.287224116289684916e+00 1.508269260725286554e+00 -1.515068631859343817e+00 1.508269260725286554e+00 2.934147500753659266e+00
1.582492087967762728e+01 3.112188582119242763e+00 -1.649886473511432472e+00 3.112188582119242763e+00 -1.297933105471804627e+00 2.285237783456262051e+00 -1.649886473511432472e+00 2.285237783456262051e+00 3.022299789955823268e+00
1.314093277071042465e+01 2.842984867132496429e+00 -1.237673744906063522e+00 2.842984867132496429e+00 4.850921452899844000e-01 2.892214110456080345e+00 -1.237673744906063522e+00 2.892214110456080345e+00 2.651846849285545815e+00
1.034858831150785541e+01 2.462365308249757856e+00 -8.339403518888316436e-01 2.462365308249757856e+00 -1.037358808839329571e-02 3.433849177060370739e+00 -8.339403518888316436e-01 3.433849177060370739e+00 4.158780248458401552e+00
6.892048376395407239e+00 1.984973107182403051e+00 -1.027225567115898519e+00 1.984973107182403051e+00 -1.847036106168163272e+00 3.411455376277308549e+00 -1.027225567115898519e+00 3.411455376277308549e+00 2.144575737558899409e+00
1.924178968437413983e+00 2.222882709916813138e+00 -1.846773710935969204e+00 2.222882709916813138e+00 -4.784220905049033412e+00 3.460770454000910767e+00 -1.846773710935969204e+00 3.460770454000910767e+00 -3.803765699357988250e+00
-3.226145916379591139e+00 2.522437010753955988e+00 -2.554788281115373483e+00 2.522437010753955988e+00 -9.239441164761627689e+00 3.717891583568312175e+00 -2.554788281115373483e+00 3.717891583568312175e+00 -1.148365412717443590e+01
-6.567335024191851112e+00 2.356350310431448491e+00 -2.676151316564959526e+00 2.356350310431448491e+00 -1.187262676306929876e+01 3.258776152618212851e+00 -2.676151316564959526e+00 3.258776152618212851e+00 -1.634070278617233285e+01
-8.791693466306675475e+00 2.021213628701228338e+00 -2.252905441468705749e+00 2.021213628701228338e+00 -1.164944037354917938e+01 2.479167631790948789e+00 -2.252905441468705749e+00 2.479167631790948789e+00 -1.653020726789143069e+01
-5.620226280887072434e+00 1.814009505916889919e+00 -1.654046813292780138e+00 1.814009505916889919e+00 -6.225013502551364653e+00 1.989879973580610528e+00 -1.654046813292780138e+00 1.989879973580610528e+00 -1.232812663340585324e+01
-1.710438315561115141e+00 2.035553216632207452e+00 -1.417227089059724721e+00 2.035553216632207452e+00 -3.801831984437828993e-01 1.528032720753168983e+00 -1.417227089059724721e+00 1.528032720753168983e+00 -7.585777069992547972e+00
2.213671864563685254e+00 2.422660412557366083e+00 -1.435990580553223817e+00 2.422660412557366083e+00 2.549270729680669589e+00 1.611632216692692188e+00 -1.435990580553223817e+00 1.611632216692692188e+00 -5.080315884149362304e+00
5.102494471568152612e+00 2.749854210049649250e+00 -1.370905950075169910e+00 2.749854210049649250e+00 1.794954935418851649e+00 2.064838989148085169e+00 -1.370905950075169910e+00 2.064838989148085169e+00 -3.602162205077166668e+00
7.218857080079007282e+00 3.070330523403314693e+00 -1.593929713402290282e+00 3.070330523403314693e+00 2.789941336541083672e+00 2.394242216426129666e+00 -1.593929713402290282e+00 2.394242216426129666e+00 -6.701018367145007426e-01
9.013496701321312088e+00 3.468394442874084938e+00 -1.975623706468927487e+00 3.468394442874084938e+00 4.968203683107515367e+00 2.658975774552774674e+00 -1.975623706468927487e+00 2.658975774552774674e+00 1.431647365473868616e+00
1.036842143969404617e+01 3.684844018429339396e+00 -1.830040834397723692e+00 3.684844018429339396e+00 7.016632272255827196e+00 2.924713785930024734e+00 -1.830040834397723692e+00 2.924713785930024734e+00 4.113464353077130653e+00
9.211833991149964262e+00 3.970264555842379917e+00 -1.309187560691450258e+00 3.970264555842379917e+00 6.734097598887688108e+00 3.277349289359470230e+00 -1.309187560691450258e+00 3.277349289359470230e+00 4.511121897674515324e+00
6.708542879028936312e+00 4.301321603603555310e+00 -9.555755555890980135e-01 4.301321603603555310e+00 5.322307352716197926e+00 3.553698239886794674e+00 -9.555755555890980135e-01 3.553698239886794674e+00 1.703772912534426087e+00
4.121816652016039306e+00 4.272163405805554426e+00 -1.060325655902835340e+00 4.272163405805554426e+00 1.177793263557891157e+00 3.482148538839039187e+00 -1.060325655902835340e+00 3.482148538839039187e+00 -2.508463219764761387e+00
2.524284902457492041e+00 4.237044027481163155e+00 -1.351096253537886538e+00 4.237044027481163155e+00 -1.477743688899304741e+00 3.322421961786035549e+00 -1.351096253537886538e+00 3.322421961786035549e+00 -6.855367293760860292e+00
1.507579734808930372e+00 4.250713890425903863e+00 -1.444533356547689662e+00 4.250713890425903863e+00 -3.314143624677452937e+00 3.098386407333890702e+00 -1.444533356547689662e+00 3.098386407333890702e+00 -9.485665023535700513e+00
3.970298814047725222e-01 3.920817294573013978e+00 -1.399412484022240832e+00 3.920817294573013978e+00 -4.557781266709860724e+00 2.688955371072319522e+00 -1.399412484022240832e+00 2.688955371072319522e+00 -1.007942797132951007e+01
-1.338172864366766746e+00 3.412901782475375789e+00 -1.360636089499955403e+00 3.412901782475375789e+00 -2.288183459711750523e+00 2.448342903252627156e+00 -1.360636089499955403e+00 2.448342903252627156e+00 -9.032489108879591555e+00
-2.541731871623872152e+00 2.977708135845706483e+00 -1.324754388476390821e+00 2.977708135845706483e+00 -1.140067213673771063e+00 2.403259326252797479e+00 -1.324754388476390821e+00 2.403259326252797479e+00 -7.899768865610575119e+00
-3.805348949597733732e+00 2.863367205442230556e+00 -1.243159485472304926e+00 2.863367205442230556e+00 -3.107507979177054569e+00 2.492103019562195154e+00 -1.243159485472304926e+00 2.492103019562195154e+00 -7.146235913203861756e+00
-3.535875743459730991e+00 3.272660170126639123e+00 -1.112145324607147767e+00 3.272660170126639123e+00 -3.679291732829442108e+00 2.804343948302753908e+00 -1.112145324607147767e+00 2.804343948302753908e+00 -6.285978990099380326e+00
-5.117720519406364632e-01 3.647661928915091778e+00 -1.032833166620292786e+00 3.647661928915091778e+00 -2.113649263054831806e+00 3.004985350997100291e+00 -1.032833166620292786e+00 3.004985350997100291e+00 -4.953105020185073926e+00
1.458591929907670393e+00 3.875570622112354258e+00 -1.116808438679368187e+00 3.875570622112354258e+00 -1.050768662783949425e+00 2.944157823263379825e+00 -1.116808438679368187e+00 2.944157823263379825e+00 -3.587605905884082347e+00
2.984289851840518537e+00 3.943931070259364180e+00 -1.203503564860960884e+00 3.943931070259364180e+00 5.946637045822137368e-01 3.157944239955310817e+00 -1.203503564860960884e+00 3.157944239955310817e+00 -2.499480314077416665e+00
3.501388092272614827e+00 3.738441626635972792e+00 -1.608180235771622169e+00 3.738441626635972792e+00 2.885920787684886690e+00 3.564906300114579984e+00 -1.608180235771622169e+00 3.564906300114579984e+00 -2.041748184685276524e+00
4.826955519869573052e+00 3.366076423844573284e+00 -2.140738774993215188e+00 3.366076423844573284e+00 4.308163775314455712e+00 4.131547675304298117e+00 -2.140738774993215188e+00 4.131547675304298117e+00 -6.064671098362781065e-02
7.194116253622692803e+00 2.838767031287557252e+00 -2.333459107447049430e+00 2.838767031287557252e+00 5.316355993288624404e+00 4.686022810395911620e+00 -2.333459107447049430e+00 4.686022810395911620e+00 2.192189079966562648e+00
8.271177259330078968e+00 2.348477511603690449e+00 -2.510132867163698656e+00 2.348477511603690449e+00 7.071749336935443608e+00 4.461663067648749426e+00 -2.510132867163698656e+00 4.461663067648749426e+00 2.018500947582236638e+00
7.433773792482737619e+00 1.939493490561828182e+00 -2.541414478414901534e+00 1.939493490561828182e+00 4.078524629773280452e+00 3.892348984674796952e+00 -2.541414478414901534e+00 3.892348984674796952e+00 -1.764949566693571947e+00
7.177744339655699690e+00 2.065705539422060699e+00 -2.425908280584819554e+00 2.065705539422060699e+00 1.511977026891999643e+00 3.176100654950773539e+00 -2.425908280584819554e+00 3.176100654950773539e+00 -6.499623068725843389e+00
4.899500881212204284e+00 2.673498020905132666e+00 -2.680370172180379207e+00 2.673498020905132666e+00 8.126485402383236689e-01 2.454562632880649797e+00 -2.680370172180379207e+00 2.454562632880649797e+00 -1.013919710718169220e+01
4.111173136156622832e+00 2.979852049594917229e+00 -2.807292269760176318e+00 2.979852049594917229e+00 -8.970916836888409573e-01 2.149781324059953924e+00 -2.807292269760176318e+00 2.149781324059953924e+00 -1.227710855060697170e+01
3.126055798432126887e-01 2.817305894424929402e+00 -2.664390802961729143e+00 2.817305894424929402e+00 -5.038435467372808674e+00 2.368637384488513575e+00 -2.664390802961729143e+00 2.368637384488513575e+00 -1.110593901480363321e+01
-1.470038271812477149e+00 2.501838044069373268e+00 -2.545095612430081644e+00 2.501838044069373268e+00 -7.307317111093047934e+00 2.706087572277799058e+00 -2.545095612430081644e+00 2.706087572277799058e+00 -6.958976774662628095e+00
-4.414164281286721447e+00 2.546287413872370564e+00 -2.160329326732861155e+00 2.546287413872370564e+00 -7.959825816363839124e+00 2.839145161126233052e+00 -2.160329326732861155e+00 2.839145161126233052e+00 -7.062659507604174713e+00
-5.313638879026599149e+00 2.706742586658031691e+00 -1.711747285850415912e+00 2.706742586658031691e+00 -8.188147457550043029e+00 2.720963720762874072e+00 -1.711747285850415912e+00 2.720963720762874072e+00 -5.501266710648794245e+00
-4.329425226737138033e+00 2.659266074369044830e+00 -2.068430295170405664e+00 2.659266074369044830e+00 -9.387263282136197873e+00 2.607977878768977575e+00 -2.068430295170405664e+00 2.607977878768977575e+00 -6.407945793939270551e+00
9.401843361565399848e-02 3.206130728561574106e+00 -2.074520904337419314e+00 3.206130728561574106e+00 -6.106397625716274646e+00 2.748047035860637255e+00 -2.074520904337419314e+00 2.748047035860637255e+00 -5.874817139889652928e+00
5.316491465725046162e+00 3.318904615625654753e+00 -1.566794454708622109e+00 3.318904615625654753e+00 -1.971479227845884807e+00 3.103482811154772314e+00 -1.566794454708622109e+00 3.103482811154772314e+00 -6.225660485253505794e-01
9.269047288787508165e+00 2.177794345154771882e+00 -3.158774621667155835e-01 2.177794345154771882e+00 1.911830729654239835e+00 3.272625878445503567e+00 -3.158774621667155835e-01 3.272625878445503567e+00 1.720270675842885844e+00
1.290904713490044564e+01 1.130528266986219776e+00 6.226034915255447277e-01 1.130528266986219776e+00 3.815655347013394039e+00 2.898241295202865331e+00 6.226034915255447277e-01 2.898241295202865331e+00 3.182680484393806353e+00
1.808959648647550011e+01 1.415376489940772586e+00 2.989922231670671948e-01 1.415376489940772586e+00 3.700876469484631226e+00 2.480403597648655811e+00 2.989922231670671948e-01 2.480403597648655811e+00 3.564009218333296314e+00
1.498658152933025001e+01 2.108728894714690050e+00 -5.321370695537687157e-01 2.108728894714690050e+00 1.972294074236366379e+00 2.298760565357991226e+00 -5.321370695537687157e-01 2.298760565357991226e+00 -1.051832434552124163e+00