7.737452322453415299e+00 0.000000000000000000e+00 0.000000000000000000e+00 0.000000000000000000e+00 7.737452322453415299e+00 0.000000000000000000e+00 0.000000000000000000e+00 0.000000000000000000e+00 8.457541607939644379e+00
7.738790221126067514e+00 0.000000000000000000e+00 0.000000000000000000e+00 0.000000000000000000e+00 7.738790221126067514e+00 0.000000000000000000e+00 0.000000000000000000e+00 0.000000000000000000e+00 8.459004018719566531e+00
7.742278224682069165e+00 0.000000000000000000e+00 0.000000000000000000e+00 0.000000000000000000e+00 7.742278224682069165e+00 0.000000000000000000e+00 0.000000000000000000e+00 0.000000000000000000e+00 8.462816634808001837e+00
7.747858720356055606e+00 0.000000000000000000e+00 0.000000000000000000e+00 0.000000000000000000e+00 7.747858720356055606e+00 0.000000000000000000e+00 0.000000000000000000e+00 0.000000000000000000e+00 8.468916481680444974e+00
7.756227621503139602e+00 0.000000000000000000e+00 0.000000000000000000e+00 0.000000000000000000e+00 7.756227621503139602e+00 0.000000000000000000e+00 0.000000000000000000e+00 0.000000000000000000e+00 8.478064238166204802e+00
7.767812068927572255e+00 0.000000000000000000e+00 0.000000000000000000e+00 0.000000000000000000e+00 7.767812068927572255e+00 0.000000000000000000e+00 0.000000000000000000e+00 0.000000000000000000e+00 8.490726797108703039e+00
7.780900408349149089e+00 0.000000000000000000e+00 0.000000000000000000e+00 0.000000000000000000e+00 7.780900408349149089e+00 0.000000000000000000e+00 0.000000000000000000e+00 0.000000000000000000e+00 8.505033208395690991e+00
7.792963351814213624e+00 0.000000000000000000e+00 0.000000000000000000e+00 0.000000000000000000e+00 7.792963351814213624e+00 0.000000000000000000e+00 0.000000000000000000e+00 0.000000000000000000e+00 8.518218794815483719e+00
7.802995006004992185e+00 0.000000000000000000e+00 0.000000000000000000e+00 0.000000000000000000e+00 7.802995006004992185e+00 0.000000000000000000e+00 0.000000000000000000e+00 0.000000000000000000e+00 8.529184049163179182e+00
7.812233558009104684e+00 0.000000000000000000e+00 0.000000000000000000e+00 0.000000000000000000e+00 7.812233558009104684e+00 0.000000000000000000e+00 0.000000000000000000e+00 0.000000000000000000e+00 8.539282390931083100e+00
7.821431263926339916e+00 0.000000000000000000e+00 0.000000000000000000e+00 0.000000000000000000e+00 7.821431263926339916e+00 0.000000000000000000e+00 0.000000000000000000e+00 0.000000000000000000e+00 8.549336085254989115e+00
7.828073087123004647e+00 0.000000000000000000e+00 0.000000000000000000e+00 0.000000000000000000e+00 7.828073087123004647e+00 0.000000000000000000e+00 0.000000000000000000e+00 0.000000000000000000e+00 8.556596032548547726e+00
7.829820481955474420e+00 0.000000000000000000e+00 0.000000000000000000e+00 0.000000000000000000e+00 7.829820481955474420e+00 0.000000000000000000e+00 0.000000000000000000e+00 0.000000000000000000e+00 8.558506049422915041e+00
7.827132218160929966e+00 0.000000000000000000e+00 0.000000000000000000e+00 0.000000000000000000e+00 7.827132218160929966e+00 0.000000000000000000e+00 0.000000000000000000e+00 0.000000000000000000e+00 8.555567601216507612e+00
7.821293249896789312e+00 0.000000000000000000e+00 0.000000000000000000e+00 0.000000000000000000e+00 7.821293249896789312e+00 0.000000000000000000e+00 0.000000000000000000e+00 0.000000000000000000e+00 8.549185226891376388e+00
7.813984705140974540e+00 0.000000000000000000e+00 0.000000000000000000e+00 0.000000000000000000e+00 7.813984705140974540e+00 0.000000000000000000e+00 0.000000000000000000e+00 0.000000000000000000e+00 8.541196509314840313e+00
7.806674752781260551e+00 0.000000000000000000e+00 0.000000000000000000e+00 0.000000000000000000e+00 7.806674752781260551e+00 0.000000000000000000e+00 0.000000000000000000e+00 0.000000000000000000e+00 8.533206253135160679e+00
7.799745633466359074e+00 0.000000000000000000e+00 0.000000000000000000e+00 0.000000000000000000e+00 7.799745633466359074e+00 0.000000000000000000e+00 0.000000000000000000e+00 0.000000000000000000e+00 8.525632272389275457e+00
7.792560846757154103e+00 0.000000000000000000e+00 0.000000000000000000e+00 0.000000000000000000e+00 7.792560846757154103e+00 0.000000000000000000e+00 0.000000000000000000e+00 0.000000000000000000e+00 8.517778830455052130e+00
7.785755314912845115e+00 0.000000000000000000e+00 0.000000000000000000e+00 0.000000000000000000e+00 7.785755314912845115e+00 0.000000000000000000e+00 0.000000000000000000e+00 0.000000000000000000e+00 8.510339938900550294e+00
7.781006874079301028e+00 0.000000000000000000e+00 0.000000000000000000e+00 0.000000000000000000e+00 7.781006874079301028e+00 0.000000000000000000e+00 0.000000000000000000e+00 0.000000000000000000e+00 8.505149582404806452e+00
7.779275201206330870e+00 0.000000000000000000e+00 0.000000000000000000e+00 0.000000000000000000e+00 7.779275201206330870e+00 0.000000000000000000e+00 0.000000000000000000e+00 0.000000000000000000e+00 8.503256750660517227e+00
7.780902043848734628e+00 0.000000000000000000e+00 0.000000000000000000e+00 0.000000000000000000e+00 7.780902043848734628e+00 0.000000000000000000e+00 0.000000000000000000e+00 0.000000000000000000e+00 8.505034996103400857e+00
7.785250290844915710e+00 0.000000000000000000e+00 0.000000000000000000e+00 0.000000000000000000e+00 7.785250290844915710e+00 0.000000000000000000e+00 0.000000000000000000e+00 0.000000000000000000e+00 8.509787914553170296e+00
7.792446065241871445e+00 0.000000000000000000e+00 0.000000000000000000e+00 0.000000000000000000e+00 7.792446065241871445e+00 0.000000000000000000e+00 0.000000000000000000e+00 0.000000000000000000e+00 8.517653366748257682e+00
7.802694773717218979e+00 0.000000000000000000e+00 0.000000000000000000e+00 0.000000000000000000e+00 7.802694773717218979e+00 0.000000000000000000e+00 0.000000000000000000e+00 0.000000000000000000e+00 8.528855875630243943e+00
7.815773174701004855e+00 0.000000000000000000e+00 0.000000000000000000e+00 0.000000000000000000e+00 7.815773174701004855e+00 0.000000000000000000e+00 0.000000000000000000e+00 0.000000000000000000e+00 8.543151423554764534e+00
7.830281971796999585e+00 0.000000000000000000e+00 0.000000000000000000e+00 0.000000000000000000e+00 7.830281971796999585e+00 0.000000000000000000e+00 0.000000000000000000e+00 0.000000000000000000e+00 8.559010488012214424e+00
7.847346907277092498e+00 0.000000000000000000e+00 0.000000000000000000e+00 0.000000000000000000e+00 7.847346907277092498e+00 0.000000000000000000e+00 0.000000000000000000e+00 0.000000000000000000e+00 8.577663578958405921e+00
7.866980911537851284e+00 0.000000000000000000e+00 0.000000000000000000e+00 0.000000000000000000e+00 7.866980911537851284e+00 0.000000000000000000e+00 0.000000000000000000e+00 0.000000000000000000e+00 8.599124830160981503e+00
7.884877856534646234e+00 0.000000000000000000e+00 0.000000000000000000e+00 0.000000000000000000e+00 7.884877856534646234e+00 0.000000000000000000e+00 0.000000000000000000e+00 0.000000000000000000e+00 8.618687361942157565e+00
7.898208036295117473e+00 0.000000000000000000e+00 0.000000000000000000e+00 0.000000000000000000e+00 7.898208036295117473e+00 0.000000000000000000e+00 0.000000000000000000e+00 0.000000000000000000e+00 8.633258120542484093e+00
7.907588632497581038e+00 0.000000000000000000e+00 0.000000000000000000e+00 0.000000000000000000e+00 7.907588632497581038e+00 0.000000000000000000e+00 0.000000000000000000e+00 0.000000000000000000e+00 8.643511725912642163e+00
7.916079674513586184e+00 0.000000000000000000e+00 0.000000000000000000e+00 0.000000000000000000e+00 7.916079674513586184e+00 0.000000000000000000e+00 0.000000000000000000e+00 0.000000000000000000e+00 8.652792990358889824e+00
7.922545563110984013e+00 0.000000000000000000e+00 0.000000000000000000e+00 0.000000000000000000e+00 7.922545563110984013e+00 0.000000000000000000e+00 0.000000000000000000e+00 0.000000000000000000e+00 8.659860629624429151e+00
7.923793749396047303e+00 0.000000000000000000e+00 0.000000000000000000e+00 0.000000000000000000e+00 7.923793749396047303e+00 0.000000000000000000e+00 0.000000000000000000e+00 0.000000000000000000e+00 8.661224978895825544e+00
7.918468581022320762e+00 0.000000000000000000e+00 0.000000000000000000e+00 0.000000000000000000e+00 7.918468581022320762e+00 0.000000000000000000e+00 0.000000000000000000e+00 0.000000000000000000e+00 8.655404221465857972e+00
7.906887711415293118e+00 0.000000000000000000e+00 0.000000000000000000e+00 0.000000000000000000e+00 7.906887711415293118e+00 0.000000000000000000e+00 0.000000000000000000e+00 0.000000000000000000e+00 8.642745573311847451e+00
7.890503559827404700e+00 0.000000000000000000e+00 0.000000000000000000e+00 0.000000000000000000e+00 7.890503559827404700e+00 0.000000000000000000e+00 0.000000000000000000e+00 0.000000000000000000e+00 8.624836623701154892e+00
7.869460097185911884e+00 0.000000000000000000e+00 0.000000000000000000e+00 0.000000000000000000e+00 7.869460097185911884e+00 0.000000000000000000e+00 0.000000000000000000e+00 0.000000000000000000e+00 8.601834742273911871e+00
7.843424757885165022e+00 0.000000000000000000e+00 0.000000000000000000e+00 0.000000000000000000e+00 7.843424757885165022e+00 0.000000000000000000e+00 0.000000000000000000e+00 0.000000000000000000e+00 8.573376413066624124e+00
7.812670124670095362e+00 0.000000000000000000e+00 0.000000000000000000e+00 0.000000000000000000e+00 7.812670124670095362e+00 0.000000000000000000e+00 0.000000000000000000e+00 0.000000000000000000e+00 8.539759586854199114e+00
7.780004251803696924e+00 0.000000000000000000e+00 0.000000000000000000e+00 0.000000000000000000e+00 7.780004251803696924e+00 0.000000000000000000e+00 0.000000000000000000e+00 0.000000000000000000e+00 8.504053650661319352e+00
7.748959575027204671e+00 0.000000000000000000e+00 0.000000000000000000e+00 0.000000000000000000e+00 7.748959575027204671e+00 0.000000000000000000e+00 0.000000000000000000e+00 0.000000000000000000e+00 8.470119787859852423e+00
7.720683655434912751e+00 0.000000000000000000e+00 0.000000000000000000e+00 0.000000000000000000e+00 7.720683655434912751e+00 0.000000000000000000e+00 0.000000000000000000e+00 0.000000000000000000e+00 8.439212357805327969e+00
7.694883291579576401e+00 0.000000000000000000e+00 0.000000000000000000e+00 0.000000000000000000e+00 7.694883291579576401e+00 0.000000000000000000e+00 0.000000000000000000e+00 0.000000000000000000e+00 8.411010872134571770e+00
7.672357685874745314e+00 0.000000000000000000e+00 0.000000000000000000e+00 0.000000000000000000e+00 7.672357685874745314e+00 0.000000000000000000e+00 0.000000000000000000e+00 0.000000000000000000e+00 8.386388911369991206e+00
7.654646159970623032e+00 0.000000000000000000e+00 0.000000000000000000e+00 0.000000000000000000e+00 7.654646159970623032e+00 0.000000000000000000e+00 0.000000000000000000e+00 0.000000000000000000e+00 8.367029054787156639e+00
7.642845683154720682e+00 0.000000000000000000e+00 0.000000000000000000e+00 0.000000000000000000e+00 7.642845683154720682e+00 0.000000000000000000e+00 0.000000000000000000e+00 0.000000000000000000e+00 8.354130361586920017e+00
7.637772564696118316e+00 0.000000000000000000e+00 0.000000000000000000e+00 0.000000000000000000e+00 7.637772564696118316e+00 0.000000000000000000e+00 0.000000000000000000e+00 0.000000000000000000e+00 8.348585111206050513e+00
7.639935888023377863e+00 0.000000000000000000e+00 0.000000000000000000e+00 0.000000000000000000e+00 7.639935888023377863e+00 0.000000000000000000e+00 0.000000000000000000e+00 0.000000000000000000e+00 8.350949765136389757e+00
7.648960320002029967e+00 0.000000000000000000e+00 0.000000000000000000e+00 0.000000000000000000e+00 7.648960320002029967e+00 0.000000000000000000e+00 0.000000000000000000e+00 0.000000000000000000e+00 8.360814059708539858e+00
7.663064113363347474e+00 0.000000000000000000e+00 0.000000000000000000e+00 0.000000000000000000e+00 7.663064113363347474e+00 0.000000000000000000e+00 0.000000000000000000e+00 0.000000000000000000e+00 8.376230428587279064e+00
7.680425037895638241e+00 0.000000000000000000e+00 0.000000000000000000e+00 0.000000000000000000e+00 7.680425037895638241e+00 0.000000000000000000e+00 0.000000000000000000e+00 0.000000000000000000e+00 8.395207054932102508e+00
7.699952655622789521e+00 0.000000000000000000e+00 0.000000000000000000e+00 0.000000000000000000e+00 7.699952655622789521e+00 0.000000000000000000e+00 0.000000000000000000e+00 0.000000000000000000e+00 8.416552018694064330e+00
7.720861614440527099e+00 0.000000000000000000e+00 0.000000000000000000e+00 0.000000000000000000e+00 7.720861614440527099e+00 0.000000000000000000e+00 0.000000000000000000e+00 0.000000000000000000e+00 8.439406878641607435e+00
7.742643754245970733e+00 0.000000000000000000e+00 0.000000000000000000e+00 0.000000000000000000e+00 7.742643754245970733e+00 0.000000000000000000e+00 0.000000000000000000e+00 0.000000000000000000e+00 8.463216182535084897e+00
7.764470732241313122e+00 0.000000000000000000e+00 0.000000000000000000e+00 0.000000000000000000e+00 7.764470732241313122e+00 0.000000000000000000e+00 0.000000000000000000e+00 0.000000000000000000e+00 8.487074497504437431e+00
7.784929007377320076e+00 0.000000000000000000e+00 0.000000000000000000e+00 0.000000000000000000e+00 7.784929007377320076e+00 0.000000000000000000e+00 0.000000000000000000e+00 0.000000000000000000e+00 8.509436730702690355e+00
7.803435489773434597e+00 0.000000000000000000e+00 0.000000000000000000e+00 0.000000000000000000e+00 7.803435489773434597e+00 0.000000000000000000e+00 0.000000000000000000e+00 0.000000000000000000e+00 8.529665526739648840e+00
7.819987486308158431e+00 0.000000000000000000e+00 0.000000000000000000e+00 0.000000000000000000e+00 7.819987486308158431e+00 0.000000000000000000e+00 0.000000000000000000e+00 0.000000000000000000e+00 8.547757941860258057e+00
7.833913715127590827e+00 0.000000000000000000e+00 0.000000000000000000e+00 0.000000000000000000e+00 7.833913715127590827e+00 0.000000000000000000e+00 0.000000000000000000e+00 0.000000000000000000e+00 8.562980221077236109e+00
7.844876770443944380e+00 0.000000000000000000e+00 0.000000000000000000e+00 0.000000000000000000e+00 7.844876770443944380e+00 0.000000000000000000e+00 0.000000000000000000e+00 0.000000000000000000e+00 8.574963557790541202e+00
7.852763195911303562e+00 0.000000000000000000e+00 0.000000000000000000e+00 0.000000000000000000e+00 7.852763195911303562e+00 0.000000000000000000e+00 0.000000000000000000e+00 0.000000000000000000e+00 8.583583936793043989e+00
7.857060130236855677e+00 0.000000000000000000e+00 0.000000000000000000e+00 0.000000000000000000e+00 7.857060130236855677e+00 0.000000000000000000e+00 0.000000000000000000e+00 0.000000000000000000e+00 8.588280767136675209e+00
7.857782536978465515e+00 0.000000000000000000e+00 0.000000000000000000e+00 0.000000000000000000e+00 7.857782536978465515e+00 0.000000000000000000e+00 0.000000000000000000e+00 0.000000000000000000e+00 8.589070404968280670e+00
7.856353001269302361e+00 0.000000000000000000e+00 0.000000000000000000e+00 0.000000000000000000e+00 7.856353001269302361e+00 0.000000000000000000e+00 0.000000000000000000e+00 0.000000000000000000e+00 8.587507828910938557e+00
7.855851874136941859e+00 0.000000000000000000e+00 0.000000000000000000e+00 0.000000000000000000e+00 7.855851874136941859e+00 0.000000000000000000e+00 0.000000000000000000e+00 0.000000000000000000e+00 8.586960064169037565e+00
7.858807913103090570e+00 0.000000000000000000e+00 0.000000000000000000e+00 0.000000000000000000e+00 7.858807913103090570e+00 0.000000000000000000e+00 0.000000000000000000e+00 0.000000000000000000e+00 8.590191208156598535e+00
7.863699340848560482e+00 0.000000000000000000e+00 0.000000000000000000e+00 0.000000000000000000e+00 7.863699340848560482e+00 0.000000000000000000e+00 0.000000000000000000e+00 0.000000000000000000e+00 8.595537858702670064e+00
7.867941824282548069e+00 0.000000000000000000e+00 0.000000000000000000e+00 0.000000000000000000e+00 7.867941824282548069e+00 0.000000000000000000e+00 0.000000000000000000e+00 0.000000000000000000e+00 8.600175170657903934e+00
7.871241344425516928e+00 0.000000000000000000e+00 0.000000000000000000e+00 0.000000000000000000e+00 7.871241344425516928e+00 0.000000000000000000e+00 0.000000000000000000e+00 0.000000000000000000e+00 8.603781762044279802e+00
7.874513108024260077e+00 0.000000000000000000e+00 0.000000000000000000e+00 0.000000000000000000e+00 7.874513108024260077e+00 0.000000000000000000e+00 0.000000000000000000e+00 0.000000000000000000e+00 8.607358013711298383e+00
7.876176215708911243e+00 0.000000000000000000e+00 0.000000000000000000e+00 0.000000000000000000e+00 7.876176215708911243e+00 0.000000000000000000e+00 0.000000000000000000e+00 0.000000000000000000e+00 8.609175899219000172e+00
7.874315953354141584e+00 0.000000000000000000e+00 0.000000000000000000e+00 0.000000000000000000e+00 7.874315953354141584e+00 0.000000000000000000e+00 0.000000000000000000e+00 0.000000000000000000e+00 8.607142510757798348e+00
7.869258739142988901e+00 0.000000000000000000e+00 0.000000000000000000e+00 0.000000000000000000e+00 7.869258739142988901e+00 0.000000000000000000e+00 0.000000000000000000e+00 0.000000000000000000e+00 8.601614644758859285e+00
7.862092666665061458e+00 0.000000000000000000e+00 0.000000000000000000e+00 0.000000000000000000e+00 7.862092666665061458e+00 0.000000000000000000e+00 0.000000000000000000e+00 0.000000000000000000e+00 8.593781658703884219e+00
7.854182559923017060e+00 0.000000000000000000e+00 0.000000000000000000e+00 0.000000000000000000e+00 7.854182559923017060e+00 0.000000000000000000e+00 0.000000000000000000e+00 0.000000000000000000e+00 8.585135394519385343e+00
7.846353823818580153e+00 0.000000000000000000e+00 0.000000000000000000e+00 0.000000000000000000e+00 7.846353823818580153e+00 0.000000000000000000e+00 0.000000000000000000e+00 0.000000000000000000e+00 8.576578073765901422e+00
7.839149589018324704e+00 0.000000000000000000e+00 0.000000000000000000e+00 0.000000000000000000e+00 7.839149589018324704e+00 0.000000000000000000e+00 0.000000000000000000e+00 0.000000000000000000e+00 8.568703373795045763e+00
7.832838380315542359e+00 0.000000000000000000e+00 0.000000000000000000e+00 0.000000000000000000e+00 7.832838380315542359e+00 0.000000000000000000e+00 0.000000000000000000e+00 0.000000000000000000e+00 8.561804809775257041e+00
7.827750135726010861e+00 0.000000000000000000e+00 0.000000000000000000e+00 0.000000000000000000e+00 7.827750135726010861e+00 0.000000000000000000e+00 0.000000000000000000e+00 0.000000000000000000e+00 8.556243025542562108e+00
7.823629837311688817e+00 0.000000000000000000e+00 0.000000000000000000e+00 0.000000000000000000e+00 7.823629837311688817e+00 0.000000000000000000e+00 0.000000000000000000e+00 0.000000000000000000e+00 8.551739269806535759e+00
7.819498300486058540e+00 0.000000000000000000e+00 0.000000000000000000e+00 0.000000000000000000e+00 7.819498300486058540e+00 0.000000000000000000e+00 0.000000000000000000e+00 0.000000000000000000e+00 8.547223229752223261e+00
7.814228280058883591e+00 0.000000000000000000e+00 0.000000000000000000e+00 0.000000000000000000e+00 7.814228280058883591e+00 0.000000000000000000e+00 0.000000000000000000e+00 0.000000000000000000e+00 8.541462752636263644e+00
7.808005381906759190e+00 0.000000000000000000e+00 0.000000000000000000e+00 0.000000000000000000e+00 7.808005381906759190e+00 0.000000000000000000e+00 0.000000000000000000e+00 0.000000000000000000e+00 8.534660717825824250e+00
7.801906044217384206e+00 0.000000000000000000e+00 0.000000000000000000e+00 0.000000000000000000e+00 7.801906044217384206e+00 0.000000000000000000e+00 0.000000000000000000e+00 0.000000000000000000e+00 8.527993742683939615e+00
7.796485255534076231e+00 0.000000000000000000e+00 0.000000000000000000e+00 0.000000000000000000e+00 7.796485255534076231e+00 0.000000000000000000e+00 0.000000000000000000e+00 0.000000000000000000e+00 8.522068466001616827e+00
7.790624434937724274e+00 0.000000000000000000e+00 0.000000000000000000e+00 0.000000000000000000e+00 7.790624434937724274e+00 0.000000000000000000e+00 0.000000000000000000e+00 0.000000000000000000e+00 8.515662205646982841e+00
7.784296945236659937e+00 0.000000000000000000e+00 0.000000000000000000e+00 0.000000000000000000e+00 7.784296945236659937e+00 0.000000000000000000e+00 0.000000000000000000e+00 0.000000000000000000e+00 8.508745845430633281e+00
7.778743246934419986e+00 0.000000000000000000e+00 0.000000000000000000e+00 0.000000000000000000e+00 7.778743246934419986e+00 0.000000000000000000e+00 0.000000000000000000e+00 0.000000000000000000e+00 8.502675289837579697e+00
7.773825612031807886e+00 0.000000000000000000e+00 0.000000000000000000e+00 0.000000000000000000e+00 7.773825612031807886e+00 0.000000000000000000e+00 0.000000000000000000e+00 0.000000000000000000e+00 8.497299993154406650e+00
7.768164378622572031e+00 0.000000000000000000e+00 0.000000000000000000e+00 0.000000000000000000e+00 7.768164378622572031e+00 0.000000000000000000e+00 0.000000000000000000e+00 0.000000000000000000e+00 8.491111894655965386e+00
7.762752724717681296e+00 0.000000000000000000e+00 0.000000000000000000e+00 0.000000000000000000e+00 7.762752724717681296e+00 0.000000000000000000e+00 0.000000000000000000e+00 0.000000000000000000e+00 8.485196602882165706e+00
7.759929964870337038e+00 0.000000000000000000e+00 0.000000000000000000e+00 0.000000000000000000e+00 7.759929964870337038e+00 0.000000000000000000e+00 0.000000000000000000e+00 0.000000000000000000e+00 8.482111141691008882e+00
7.760084027911503313e+00 0.000000000000000000e+00 0.000000000000000000e+00 0.000000000000000000e+00 7.760084027911503313e+00 0.000000000000000000e+00 0.000000000000000000e+00 0.000000000000000000e+00 8.482279542674643125e+00
7.761554511906955334e+00 0.000000000000000000e+00 0.000000000000000000e+00 0.000000000000000000e+00 7.761554511906955334e+00 0.000000000000000000e+00 0.000000000000000000e+00 0.000000000000000000e+00 8.483886877888338063e+00
7.763138836543105548e+00 0.000000000000000000e+00 0.000000000000000000e+00 0.000000000000000000e+00 7.763138836543105548e+00 0.000000000000000000e+00 0.000000000000000000e+00 0.000000000000000000e+00 8.485618648367744044e+00
7.764973782572603511e+00 0.000000000000000000e+00 0.000000000000000000e+00 0.000000000000000000e+00 7.764973782572603511e+00 0.000000000000000000e+00 0.000000000000000000e+00 0.000000000000000000e+00 8.487624364429239066e+00
7.767778211351466844e+00 0.000000000000000000e+00 0.000000000000000000e+00 0.000000000000000000e+00 7.767778211351466844e+00 0.000000000000000000e+00 0.000000000000000000e+00 0.000000000000000000e+00 8.490689788562733042e+00
7.771020888168642671e+00 0.000000000000000000e+00 0.000000000000000000e+00 0.000000000000000000e+00 7.771020888168642671e+00 0.000000000000000000e+00 0.000000000000000000e+00 0.000000000000000000e+00 8.494234246474768213e+00
7.773077181606998565e+00 0.000000000000000000e+00 0.000000000000000000e+00 0.000000000000000000e+00 7.773077181606998565e+00 0.000000000000000000e+00 0.000000000000000000e+00 0.000000000000000000e+00 8.496481909734541205e+00
7.773548499674949319e+00 0.000000000000000000e+00 0.000000000000000000e+00 0.000000000000000000e+00 7.773548499674949319e+00 0.000000000000000000e+00 0.000000000000000000e+00 0.000000000000000000e+00 8.496997091220000797e+00
7.773887532952371338e+00 0.000000000000000000e+00 0.000000000000000000e+00 0.000000000000000000e+00 7.773887532952371338e+00 0.000000000000000000e+00 0.000000000000000000e+00 0.000000000000000000e+00 8.497367676772800138e+00
7.775061546608394991e+00 0.000000000000000000e+00 0.000000000000000000e+00 0.000000000000000000e+00 7.775061546608394991e+00 0.000000000000000000e+00 0.000000000000000000e+00 0.000000000000000000e+00 8.498650950507888879e+00
7.776363804411207781e+00 0.000000000000000000e+00 0.000000000000000000e+00 0.000000000000000000e+00 7.776363804411207781e+00 0.000000000000000000e+00 0.000000000000000000e+00 0.000000000000000000e+00 8.500074403486065577e+00
7.777092452104892750e+00 0.000000000000000000e+00 0.000000000000000000e+00 0.000000000000000000e+00 7.777092452104892750e+00 0.000000000000000000e+00 0.000000000000000000e+00 0.000000000000000000e+00 8.500870863087403251e+00
7.777994962573769655e+00 0.000000000000000000e+00 0.000000000000000000e+00 0.000000000000000000e+00 7.777994962573769655e+00 0.000000000000000000e+00 0.000000000000000000e+00 0.000000000000000000e+00 8.501857366075794786e+00
7.780100783192033020e+00 0.000000000000000000e+00 0.000000000000000000e+00 0.000000000000000000e+00 7.780100783192033020e+00 0.000000000000000000e+00 0.000000000000000000e+00 0.000000000000000000e+00 8.504159165783942598e+00
7.783118291082348428e+00 0.000000000000000000e+00 0.000000000000000000e+00 0.000000000000000000e+00 7.783118291082348428e+00 0.000000000000000000e+00 0.000000000000000000e+00 0.000000000000000000e+00 8.507457499326742223e+00
7.786008511394370224e+00 0.000000000000000000e+00 0.000000000000000000e+00 0.000000000000000000e+00 7.786008511394370224e+00 0.000000000000000000e+00 0.000000000000000000e+00 0.000000000000000000e+00 8.510616699220436843e+00
7.788365905053502125e+00 0.000000000000000000e+00 0.000000000000000000e+00 0.000000000000000000e+00 7.788365905053502125e+00 0.000000000000000000e+00 0.000000000000000000e+00 0.000000000000000000e+00 8.513193484719682402e+00
7.790563496722502812e+00 0.000000000000000000e+00 0.000000000000000000e+00 0.000000000000000000e+00 7.790563496722502812e+00 0.000000000000000000e+00 0.000000000000000000e+00 0.000000000000000000e+00 8.515595596191404937e+00
7.792251536525637512e+00 0.000000000000000000e+00 0.000000000000000000e+00 0.000000000000000000e+00 7.792251536525637512e+00 0.000000000000000000e+00 0.000000000000000000e+00 0.000000000000000000e+00 8.517440734135234948e+00
7.792443723795349442e+00 0.000000000000000000e+00 0.000000000000000000e+00 0.000000000000000000e+00 7.792443723795349442e+00 0.000000000000000000e+00 0.000000000000000000e+00 0.000000000000000000e+00 8.517650807394991475e+00
7.791021764013578377e+00 0.000000000000000000e+00 0.000000000000000000e+00 0.000000000000000000e+00 7.791021764013578377e+00 0.000000000000000000e+00 0.000000000000000000e+00 0.000000000000000000e+00 8.516096512321981393e+00
7.789310682604078551e+00 0.000000000000000000e+00 0.000000000000000000e+00 0.000000000000000000e+00 7.789310682604078551e+00 0.000000000000000000e+00 0.000000000000000000e+00 0.000000000000000000e+00 8.514226188395129569e+00
7.787859465969718009e+00 0.000000000000000000e+00 0.000000000000000000e+00 0.000000000000000000e+00 7.787859465969718009e+00 0.000000000000000000e+00 0.000000000000000000e+00 0.000000000000000000e+00 8.512639913668204272e+00
7.785475019426310261e+00 0.000000000000000000e+00 0.000000000000000000e+00 0.000000000000000000e+00 7.785475019426310261e+00 0.000000000000000000e+00 0.000000000000000000e+00 0.000000000000000000e+00 8.510033557595175324e+00
7.781182789643677822e+00 0.000000000000000000e+00 0.000000000000000000e+00 0.000000000000000000e+00 7.781182789643677822e+00 0.000000000000000000e+00 0.000000000000000000e+00 0.000000000000000000e+00 8.505341869624944096e+00
7.775298286389650038e+00 0.000000000000000000e+00 0.000000000000000000e+00 0.000000000000000000e+00 7.775298286389650038e+00 0.000000000000000000e+00 0.000000000000000000e+00 0.000000000000000000e+00 8.498909722577320025e+00
7.769159632128593174e+00 0.000000000000000000e+00 0.000000000000000000e+00 0.000000000000000000e+00 7.769159632128593174e+00 0.000000000000000000e+00 0.000000000000000000e+00 0.000000000000000000e+00 8.492199771851815626e+00
7.764438883388644186e+00 0.000000000000000000e+00 0.000000000000000000e+00 0.000000000000000000e+00 7.764438883388644186e+00 0.000000000000000000e+00 0.000000000000000000e+00 0.000000000000000000e+00 8.487039684625832692e+00
7.761934058685169724e+00 0.000000000000000000e+00 0.000000000000000000e+00 0.000000000000000000e+00 7.761934058685169724e+00 0.000000000000000000e+00 0.000000000000000000e+00 0.000000000000000000e+00 8.484301747347222644e+00
7.761538480371237725e+00 0.000000000000000000e+00 0.000000000000000000e+00 0.000000000000000000e+00 7.761538480371237725e+00 0.000000000000000000e+00 0.000000000000000000e+00 0.000000000000000000e+00 8.483869354370208171e+00
7.763211159342793266e+00 0.000000000000000000e+00 0.000000000000000000e+00 0.000000000000000000e+00 7.763211159342793266e+00 0.000000000000000000e+00 0.000000000000000000e+00 0.000000000000000000e+00 8.485697701919688640e+00
7.767163323495946514e+00 0.000000000000000000e+00 0.000000000000000000e+00 0.000000000000000000e+00 7.767163323495946514e+00 0.000000000000000000e+00 0.000000000000000000e+00 0.000000000000000000e+00 8.490017675908617889e+00
7.772625334769964311e+00 0.000000000000000000e+00 0.000000000000000000e+00 0.000000000000000000e+00 7.772625334769964311e+00 0.000000000000000000e+00 0.000000000000000000e+00 0.000000000000000000e+00 8.495988011580568156e+00
7.779416872783826875e+00 0.000000000000000000e+00 0.000000000000000000e+00 0.000000000000000000e+00 7.779416872783826875e+00 0.000000000000000000e+00 0.000000000000000000e+00 0.000000000000000000e+00 8.503411606963117819e+00
7.787720550552357679e+00 0.000000000000000000e+00 0.000000000000000000e+00 0.000000000000000000e+00 7.787720550552357679e+00 0.000000000000000000e+00 0.000000000000000000e+00 0.000000000000000000e+00 8.512488070028261689e+00
7.796679950023355232e+00 0.000000000000000000e+00 0.000000000000000000e+00 0.000000000000000000e+00 7.796679950023355232e+00 0.000000000000000000e+00 0.000000000000000000e+00 0.000000000000000000e+00 8.522281279814597710e+00
7.804804296697169796e+00 0.000000000000000000e+00 0.000000000000000000e+00 0.000000000000000000e+00 7.804804296697169796e+00 0.000000000000000000e+00 0.000000000000000000e+00 0.000000000000000000e+00 8.531161722262098124e+00
7.810674015127303527e+00 0.000000000000000000e+00 0.000000000000000000e+00 0.000000000000000000e+00 7.810674015127303527e+00 0.000000000000000000e+00 0.000000000000000000e+00 0.000000000000000000e+00 8.537577708529747511e+00