2.191357778000000041e-03 7.736537941058999834e+00 2.991110812000000174e-03 3.040353810000000212e-04 7.735069146945999563e+00 4.233968659854999927e+00 7.728304729728000311e+00 3.870866846335000222e+00 8.456494895554000024e+00 6.871514724000000150e-03 3.860097201592000093e+00 4.230228159332999560e+00 3.869932326308000103e+00 6.024282042999999989e-03 8.453961769086999922e+00 3.867697074093999987e+00 7.736486360796999584e+00 4.230529335322000151e+00 3.862002256490999930e+00 3.867908003555000196e+00 7.459860429999999598e-04 3.871445480684999829e+00 3.872578424154999865e+00 4.223199755321999760e+00 1.950631764583999894e+00 1.938104143145999991e+00 1.949934095786000077e+00 1.936039372245000001e+00 1.928584278271000096e+00 6.186929237203999676e+00 1.933384951669000040e+00 5.816526940377999999e+00 1.948088024680000085e+00 1.939554199285000058e+00 5.792489452709999931e+00 6.171221532320999792e+00 5.801277347442000298e+00 1.927641712930000084e+00 1.941138508002000052e+00 5.805518685523000322e+00 1.941388509872999935e+00 6.176219275312999635e+00 5.800246302640999829e+00 5.797572216734000250e+00 1.935781565252000069e+00 5.803246515600999800e+00 5.798216870667999956e+00 6.189896586349999730e+00 7.737431122451999599e+00 1.964834978067000026e+00 1.589987383231000084e+00 7.727082076158000135e+00 1.933311335323000035e+00 5.828731959536000318e+00 2.337811371999999784e-03 5.805917619515000183e+00 1.576588233817999951e+00 1.193909314000000076e-02 5.822540629055000139e+00 5.798409146238999945e+00 3.873749966642999976e+00 1.921875204630000056e+00 1.587134646378000058e+00 3.881036246643000176e+00 1.948869378259999952e+00 5.810967239614000412e+00 3.862969880929000066e+00 5.808627585800000048e+00 1.573952520288999901e+00 3.885771959987000201e+00 5.811181082306999812e+00 5.819682091214000152e+00 1.937821173713000000e+00 1.351443636600000060e-02 1.587830261809999977e+00 1.943330335683000065e+00 7.732230922820000352e+00 5.835836232067999951e+00 1.935911891509999982e+00 3.877699151693000168e+00 1.588101031249999906e+00 1.910510624415999947e+00 3.897165550027999803e+00 5.804710895276000038e+00 5.812347528115999751e+00 7.716828520305999639e+00 1.604009271128999936e+00 5.791011594263999918e+00 7.733740371377000322e+00 5.796583985443000131e+00 5.788804883546999847e+00 3.860586502333999803e+00 1.609860365992999975e+00 5.770604471901999766e+00 3.868787966999000183e+00 5.841471909754000436e+00 1.954266917273999926e+00 1.920793330793000075e+00 3.740057891363000042e+00 1.921953935561999893e+00 1.923826903433000002e+00 7.935218699652000218e+00 1.939218750338999930e+00 5.782022581970999831e+00 3.710617803569999928e+00 1.938875062794999993e+00 5.798505343558000291e+00 7.953492325882000280e+00 5.790826334413999632e+00 1.942127642053999903e+00 3.711220890182000076e+00 5.801285615773999815e+00 1.925143266068999992e+00 7.941755091856999904e+00 5.812844353444999612e+00 5.812947417695999874e+00 3.721855234918999944e+00 5.804087502956000399e+00 5.813468594478999663e+00 7.967991364663999931e+00
1.304641762400000037e-02 7.733230370773999773e+00 1.753553547400000037e-02 1.277315225999999969e-03 7.724302496156999709e+00 4.260250312053999622e+00 7.684316892244999586e+00 3.882324707082000170e+00 8.452855683899999306e+00 4.077997800600000056e-02 3.818048948548999899e+00 4.237412581716999860e+00 3.876771924225999921e+00 3.535136507600000061e-02 8.436887152039000526e+00 3.863791525393000192e+00 7.733098352314000223e+00 4.239774797065999579e+00 3.829128542410999980e+00 3.865111217845000002e+00 4.222855517000000287e-03 3.886005137930999886e+00 3.892441094371999810e+00 4.195659047558000232e+00 2.025962178638000211e+00 1.959392485866999989e+00 1.963883123648000106e+00 1.946630554931999990e+00 1.898039256779999961e+00 6.215398229536000407e+00 1.929065005061000093e+00 5.880238207492999969e+00 1.937277523376000010e+00 1.966203015042000013e+00 5.747403913439000256e+00 6.146632794261000399e+00 5.798069845881999917e+00 1.894413236901000053e+00 1.905404774024999970e+00 5.815957705934000188e+00 1.971849800600000036e+00 6.166725002586000315e+00 5.787544918404000427e+00 5.771131562143000160e+00 1.879476101972999968e+00 5.806324263460999724e+00 5.779209879563000030e+00 6.246805165961999862e+00 5.954409412999999568e-03 2.104360917969999800e+00 1.596768192831000022e+00 7.694021239260999678e+00 1.931998475729000075e+00 5.881100668563999712e+00 1.488809246299999979e-02 5.816666060343999689e+00 1.518407474873000096e+00 5.409105022900000115e-02 5.913493007899999654e+00 5.713927419915999728e+00 3.889739695138000108e+00 1.863913008604999977e+00 1.575147150308999988e+00 3.915159773382999919e+00 2.018856871655999807e+00 5.786031583114000121e+00 3.838266550746999961e+00 5.837556616381999852e+00 1.503263184344999948e+00 3.955918772798999949e+00 5.847777612466999564e+00 5.833177563369999596e+00 1.950401346081999998e+00 7.908362710199999535e-02 1.584393231259999979e+00 1.988019823227000105e+00 7.724312186907999589e+00 5.923836374119000325e+00 1.949069338903000048e+00 3.908457793470999864e+00 1.583960135531000013e+00 1.803534476375000084e+00 3.997691095049999976e+00 5.748381093090999983e+00 5.858031500344000442e+00 7.642587783419999781e+00 1.671972074546999920e+00 5.738038634428000329e+00 7.721307595429999893e+00 5.702756177955000005e+00 5.718153848048999954e+00 3.826276060801999890e+00 1.701733656764000013e+00 5.630235031018999692e+00 3.879856058964000098e+00 5.958311875761999943e+00 2.048512444827999879e+00 1.862449937989000048e+00 3.809162914918000187e+00 1.866152920051999953e+00 1.879435711549999999e+00 7.905425098619000224e+00 1.963390871556000006e+00 5.687662171416000056e+00 3.675839297022999830e+00 1.960894571956000032e+00 5.775845627156999562e+00 7.963741748419000288e+00 5.733565574716999791e+00 1.979109811220999937e+00 3.669418608683999938e+00 5.793208078675999850e+00 1.878429037280999969e+00 7.925370399718000058e+00 5.860060988394000248e+00 5.854521115515000318e+00 3.711550939852000131e+00 5.811785207550999921e+00 5.862652029717000168e+00 8.054190824932000226e+00
2.369561205199999937e-02 7.732369318083000209e+00 3.105064496799999837e-02 1.486728140000000023e-04 7.715298963918000297e+00 4.286015060706000135e+00 7.644322650221000437e+00 3.894603134002000200e+00 8.452448380681000017e+00 7.281646240399999859e-02 3.778609014360999829e+00 4.242432012464999680e+00 3.884893925699000050e+00 6.223853008699999773e-02 8.420283782512999693e+00 3.862870261518000170e+00 7.732130702883000417e+00 4.249312044192000037e+00 3.797356406981999832e+00 3.865163758128999927e+00 7.334398677000000116e-03 3.902832071940999903e+00 3.913108111352999963e+00 4.168095889627999817e+00 2.078299033946000129e+00 1.989441265790999891e+00 2.003393174265000187e+00 1.964281416718000051e+00 1.861532484335999937e+00 6.204218893982000438e+00 1.926825739786000025e+00 5.928826166721999691e+00 1.915219195536999930e+00 1.994084766725999991e+00 5.732822997267000176e+00 6.149881432911000090e+00 5.813928308968000280e+00 1.863061224081999923e+00 1.886312448518000062e+00 5.817051258464999819e+00 1.986005930566999922e+00 6.160315658722000265e+00 5.778192645306999609e+00 5.747104664201000190e+00 1.857108856455000012e+00 5.815176848675999821e+00 5.777178585000999789e+00 6.294974299108000437e+00 1.895951672400000149e-02 2.195783505351999843e+00 1.610061984497999976e+00 7.709802178489000291e+00 1.942081326865999991e+00 5.916737546034999795e+00 3.285707067699999984e-02 5.812784413044999710e+00 1.474765819049000060e+00 4.727031356300000209e-02 5.973396133320999724e+00 5.676847382162000244e+00 3.886153467484000146e+00 1.823622160165000006e+00 1.552894898197999973e+00 3.873077410496999828e+00 2.072340746900999786e+00 5.787224882178000129e+00 3.826273806001000199e+00 5.869979855476000097e+00 1.449505026253999906e+00 3.967147234192999861e+00 5.867754065135000197e+00 5.854648853616000181e+00 1.943597766391000015e+00 1.197097926470000046e-01 1.586508090916000091e+00 2.028849532725999882e+00 1.805845480499999878e-02 5.995751326259999736e+00 1.981845767739000008e+00 3.901209816519000118e+00 1.579108675310999965e+00 1.743373093455000022e+00 3.962850209687999836e+00 5.722747007805000230e+00 5.898832998852999943e+00 7.664062337082000020e+00 1.712295309408000010e+00 5.713932783147999572e+00 7.734741744656999707e+00 5.651842998522999650e+00 5.648707760197000383e+00 3.818942747941000082e+00 1.744377441269999940e+00 5.566284531048999895e+00 3.917487326129000191e+00 6.065226664854000305e+00 2.119555437397000031e+00 1.841034898805000042e+00 3.800591627375999870e+00 1.832814035159000099e+00 1.865973038474000090e+00 7.968594063060000288e+00 1.985153179794999945e+00 5.632834036764999830e+00 3.667494452811999928e+00 1.978268888114999902e+00 5.751393802623000262e+00 7.935590505519000359e+00 5.689301522829000035e+00 2.006186678768000053e+00 3.645104562333000064e+00 5.786879684804000057e+00 1.831452090276999956e+00 7.949495194970999989e+00 5.897076211036999638e+00 5.864106923175000041e+00 3.652560168668999907e+00 5.825428914406000303e+00 5.899677016434000443e+00 8.097357820103999515e+00
3.455424265999999800e-02 7.735646204587999897e+00 4.315991747700000103e-02 7.743920277156999710e+00 7.708625428432999804e+00 4.309671669845999809e+00 7.609740669795000301e+00 3.906005240808000156e+00 8.455285973307999470e+00 1.022990756870000018e-01 3.742329135637000093e+00 4.243514618157999685e+00 3.893608891153999885e+00 8.718679680299999679e-02 8.403782417125000848e+00 3.865405445158999864e+00 7.733517539392000373e+00 4.258074005577999976e+00 3.766293720938000078e+00 3.867180169006000146e+00 9.892120784999999805e-03 3.922041662932000072e+00 3.934413774215999915e+00 4.140333006390999770e+00 2.098103199430000121e+00 2.028537063408000218e+00 2.043254121816000080e+00 1.985960727416000049e+00 1.833181066507999946e+00 6.192654203145999681e+00 1.929736042288999975e+00 5.955461896379000031e+00 1.892134748117000109e+00 2.018154480168000031e+00 5.740236197427999620e+00 6.170543374202999587e+00 5.851305184541000237e+00 1.838201170612999924e+00 1.887119879397000100e+00 5.806954596303000038e+00 1.981309952209999947e+00 6.167898706372000106e+00 5.772161096747000286e+00 5.728913373566999923e+00 1.863570083688000034e+00 5.830014732715000036e+00 5.796147796790999784e+00 6.330949858267000074e+00 1.543150200799999969e-02 2.224713781425000203e+00 1.640283353530000099e+00 7.734065150076999906e+00 1.957460318325999982e+00 5.924038222115999730e+00 5.282350275299999703e-02 5.789478511218000278e+00 1.456375033667000052e+00 2.032694840999999929e-03 5.977379054891000187e+00 5.716007899475999743e+00 3.885986251258000124e+00 1.808393639052999990e+00 1.524788866513999919e+00 3.800091692626999862e+00 2.098135882104000149e+00 5.819515363573000144e+00 3.831144247806999914e+00 5.909807419045000287e+00 1.425678344163000100e+00 3.911631201656999846e+00 5.868766032247999753e+00 5.881328382820999678e+00 1.908367120519999904e+00 9.805364485600000235e-02 1.600627631335999945e+00 2.057904124250999889e+00 3.970454558799999673e-02 6.033138724424000010e+00 2.038316198882000219e+00 3.878355214805000006e+00 1.580293563334000062e+00 1.755605089929000107e+00 3.847679458026000088e+00 5.750725642554000316e+00 5.934840953759000115e+00 1.680416895099999877e-02 1.717581835697999937e+00 5.725702842835000084e+00 3.888517665300000176e-02 5.661336321044999842e+00 5.586757638661000058e+00 3.855016436710000161e+00 1.719831190392999920e+00 5.599303660258000193e+00 3.956480762981999799e+00 6.151073662494000338e+00 2.154522463905999885e+00 1.864835154874999956e+00 3.766238264176999806e+00 1.835309199959999971e+00 1.891521767241999941e+00 8.030399574623000802e+00 1.998757462436999921e+00 5.636867596000000091e+00 3.662787849698000198e+00 1.983657478028999943e+00 5.726596551233999577e+00 7.887660209085000318e+00 5.661977450110000198e+00 2.019058130627000125e+00 3.663480527373999873e+00 5.784746369218000339e+00 1.792038824612000036e+00 7.969772586439000328e+00 5.916313773034000079e+00 5.839743093220000070e+00 3.576899319214999817e+00 5.844486728911999940e+00 5.926242220417999640e+00 8.083224474441999874e+00
4.628034426299999782e-02 7.745106710115000404e+00 5.340716416499999980e-02 7.745552950370999667e+00 7.705127754087000014e+00 4.331803930447000184e+00 7.581872272980000105e+00 3.915452513975000048e+00 8.461308992820999464e+00 1.299746463299999988e-01 3.709609102911000100e+00 4.242244510095999566e+00 3.902404762230999857e+00 1.115367344949999978e-01 8.388578098292999385e+00 3.871588883738000142e+00 7.738190543858999959e+00 4.266047117422999690e+00 3.736511773600999842e+00 3.870017239805000120e+00 1.079831909300000073e-02 3.943474503834000000e+00 3.956386036886999857e+00 4.113726816426000354e+00 2.088205063972000008e+00 2.066491686656000137e+00 2.043211731712999857e+00 1.998998374921000076e+00 1.836764276982999933e+00 6.216559716675999603e+00 1.940618277757000021e+00 5.960144226366000275e+00 1.880257107158000096e+00 2.029244423653000062e+00 5.746619018956000247e+00 6.182373998572000318e+00 5.900158549947000175e+00 1.836268038023999960e+00 1.911854425707999905e+00 5.793118499838000091e+00 1.964749943344000105e+00 6.192523856000000215e+00 5.769134475007000162e+00 5.721454599933999852e+00 1.868610246116999996e+00 5.848548552945000090e+00 5.831143727820999878e+00 6.345373325398999675e+00 7.748424170136000377e+00 2.202864046749000160e+00 1.692329089315000035e+00 7.718714980460999797e+00 1.962616543598000085e+00 5.899436428028000279e+00 5.666117009800000076e-02 5.751735305848000301e+00 1.464751935993999998e+00 7.696576358658999695e+00 5.929208457886000261e+00 5.822586003505000107e+00 3.897106149043000123e+00 1.816288408683000011e+00 1.505786365372000057e+00 3.790559787184000218e+00 2.097031368500000159e+00 5.872860765098000257e+00 3.854512893358999825e+00 5.961925631795000236e+00 1.436745765104999961e+00 3.846268837632000004e+00 5.856633659225000343e+00 5.903080464223999790e+00 1.851271694038999938e+00 3.037523079700000031e-02 1.632138290189000029e+00 2.062635445889000163e+00 7.738632590012000101e+00 6.021194251436000400e+00 2.105813368098000016e+00 3.871620108371999880e+00 1.602510874183000089e+00 1.831829505853000084e+00 3.770856001330999963e+00 5.820145301742999600e+00 5.970997524933999934e+00 8.822400550499999439e-02 1.693336618390000048e+00 5.755596482442999928e+00 9.822865243200000485e-02 5.723427000276999799e+00 5.548767763534000252e+00 3.917369043739999945e+00 1.635488213721000061e+00 5.710636693605000147e+00 3.970836349490999950e+00 6.200432526892000418e+00 2.152061608468999854e+00 1.919350022149000079e+00 3.789669648598000151e+00 1.874477751454999952e+00 1.940117062759999955e+00 8.028927601995000884e+00 1.999540921139999927e+00 5.699930744228000279e+00 3.652901626029000148e+00 1.970599119709999902e+00 5.706103189585999935e+00 7.894008412860999968e+00 5.654976474208999626e+00 2.023799401579999824e+00 3.721912866142000009e+00 5.791141603318999742e+00 1.770411576304000034e+00 7.962112950903000197e+00 5.917357889356000378e+00 5.805657223474000261e+00 3.570622450286999872e+00 5.868779616530000354e+00 5.956759822805000049e+00 8.058767571334000124e+00
5.869143356800000239e-02 7.760088522602000438e+00 6.130589893399999990e-02 7.748614946057999830e+00 7.704395712323999668e+00 4.354378045567999678e+00 7.560453759580999744e+00 3.923880765378000124e+00 8.469300868355000844e+00 1.565620142760000000e-01 3.680316676587000124e+00 4.241697570329000300e+00 3.911664943426000018e+00 1.354514985979999864e-01 8.375677036360999139e+00 3.881057693929999886e+00 7.747000764795999750e+00 4.274010019618000200e+00 3.709370561246999820e+00 3.873902388058999779e+00 7.595170245000000368e-03 3.967231795183999932e+00 3.978800205885999919e+00 4.089962965946000395e+00 2.061060205199999995e+00 2.087604181459000063e+00 2.010351627931000085e+00 1.997708117256000060e+00 1.869064416038999976e+00 6.266271045052000055e+00 1.957265226597999952e+00 5.944646711653000182e+00 1.880439247788999957e+00 2.018804544076000074e+00 5.743034138505000108e+00 6.186480469692999584e+00 5.940876451171999584e+00 1.868305413422000072e+00 1.965386457212999982e+00 5.781056263782000215e+00 1.952926435051000054e+00 6.223795127008999728e+00 5.772413513847999944e+00 5.736196151178999614e+00 1.860970249311000080e+00 5.865858484334999901e+00 5.867853461883999699e+00 6.329170074218000153e+00 7.755661900447000434e+00 2.158294841631000160e+00 1.758111713401999898e+00 7.696318194276000391e+00 1.948566495761000050e+00 5.848990848119999697e+00 3.170126861500000004e-02 5.707277947195000145e+00 1.494570079280999941e+00 7.669594842439999560e+00 5.863611355164000116e+00 5.951965452032999870e+00 3.896195048122999882e+00 1.837827826275000076e+00 1.512067404803999926e+00 3.866927535557000084e+00 2.064066840311999940e+00 5.937077441099999575e+00 3.891611541520000106e+00 6.024771682866999711e+00 1.480063519153000051e+00 3.844245159226999942e+00 5.833427128936000017e+00 5.908224545408000239e+00 1.789757584464999995e+00 7.760560572793999690e+00 1.675067629004000080e+00 2.031035925004999854e+00 7.663709694829999641e+00 5.964103384943999941e+00 2.159118067730000146e+00 3.884590490907000149e+00 1.660728648447999944e+00 1.929339808111999899e+00 3.785178257589000062e+00 5.893967626142000427e+00 6.007987915951000346e+00 6.849438786400000034e-02 1.654270414331999950e+00 5.779776850596999971e+00 1.098345365180000005e-01 5.810887178401999975e+00 5.552658172070000120e+00 3.950206989868000118e+00 1.519702579590999969e+00 5.859711192299999816e+00 3.966294308580000205e+00 6.206380668382999843e+00 2.116377614200999790e+00 1.989710747566999949e+00 3.835467769006999816e+00 1.933911080804999960e+00 1.988455789359999892e+00 8.002825049772999577e+00 1.988858933541000074e+00 5.800191540625999842e+00 3.659380134061999801e+00 1.940088048463000092e+00 5.693405154304000071e+00 7.976782805000000032e+00 5.673630694872000113e+00 2.029851856436999835e+00 3.776977432016999980e+00 5.809676055134000094e+00 1.767443405422999936e+00 7.972366217563999768e+00 5.898431647096000319e+00 5.776196489164999726e+00 3.654941704251000179e+00 5.895148073727000337e+00 6.002747725604000273e+00 8.086935068298000573e+00
7.025653322100000597e-02 7.776384868002000239e+00 6.687695562400000626e-02 7.752356376229999846e+00 7.703955585510000148e+00 4.377195142993000054e+00 7.542334225190000296e+00 3.932554107252999920e+00 8.475731506933000148e+00 1.817533538199999910e-01 3.653610086976000204e+00 4.242557777406999797e+00 3.922247917622000202e+00 1.580468293510000066e-01 8.364229021916999685e+00 3.892198379941000042e+00 7.757902784332999957e+00 4.281622380263000238e+00 3.685390068988999790e+00 3.879248785760999851e+00 8.503464454554000795e+00 3.992649912920000155e+00 4.001159146114000364e+00 4.069051730793000310e+00 2.028526980906999899e+00 2.080421672319999971e+00 1.983414317512999903e+00 1.988412902187000064e+00 1.915961891253000093e+00 6.299882114364000252e+00 1.971055858598999899e+00 5.919279218077999616e+00 1.888924963248000077e+00 1.990597555953000031e+00 5.730895141787000213e+00 6.210729112077999936e+00 5.957223379546999986e+00 1.910882935240000080e+00 2.036532689782000194e+00 5.775695312927999758e+00 1.960258006617999982e+00 6.255587465656000212e+00 5.787675381605000169e+00 5.780480647710000142e+00 1.863989944238999996e+00 5.876921969304000015e+00 5.892020938104000294e+00 6.301890171352000358e+00 2.531198887700000094e-02 2.118065914737000011e+00 1.824670912106999943e+00 7.737645322738999631e+00 1.914591963894000104e+00 5.789241954021999703e+00 7.772807554628999860e+00 5.662361211270999561e+00 1.545864466919000035e+00 7.721755030094000105e+00 5.814369212725000402e+00 6.059334014882000297e+00 3.873842347736999869e+00 1.858886576489999998e+00 1.548703413177999977e+00 3.942376517661999813e+00 1.995496722683999913e+00 6.004313951810999583e+00 3.923409825614000201e+00 6.085589671106999887e+00 1.550878624055000099e+00 3.901317248279999816e+00 5.799397190755000153e+00 5.895521702365000394e+00 1.741323435783999951e+00 2.020156885599999966e-02 1.717816160011000015e+00 1.967866340969999905e+00 7.654887582946000357e+00 5.884522506445000190e+00 2.181935076760999959e+00 3.911124870982999990e+00 1.751992150588000063e+00 2.014229851187999909e+00 3.856033307062999960e+00 5.952385826677000225e+00 6.037781754705999759e+00 2.131754554299999938e-02 1.629275928960999931e+00 5.790759162438999574e+00 3.826131379500000151e-02 5.893927746243000421e+00 5.605713714573999695e+00 3.920772591418999919e+00 1.412718582911999921e+00 6.000761435701000401e+00 3.946361011707999911e+00 6.174650269934000235e+00 2.058076576601000074e+00 2.063396565174000052e+00 3.824034826407999965e+00 1.989403357934000027e+00 2.024176338414000131e+00 8.027457060596999483e+00 1.974366255055999941e+00 5.904256100079999570e+00 3.695832260847999873e+00 1.904745958301000019e+00 5.694213343163999852e+00 8.062406205968999373e+00 5.719519742070000135e+00 2.041911549737000175e+00 3.792020250545999893e+00 5.841701589122999749e+00 1.780588241347000000e+00 8.036593867470999797e+00 5.850987652815000217e+00 5.748581619442999724e+00 3.742054248536999861e+00 5.911798398926999987e+00 6.055032769478000176e+00 8.134266029560999200e+00
7.975002735899999751e-02 7.790250477476000412e+00 7.068712331000000237e-02 7.755863745381000207e+00 7.700616781973000258e+00 4.398240197299999821e+00 7.524086979403000086e+00 3.941327673074999982e+00 8.477705653533000429e+00 2.051167753729999932e-01 3.629249942022000130e+00 4.242925147622999660e+00 3.934432032221999886e+00 1.788509243630000134e-01 8.353108965905999383e+00 3.902416417831000128e+00 7.766876238862000292e+00 4.287789112955000093e+00 3.664019786213999819e+00 3.885582870947000167e+00 8.502895963835999993e+00 4.018117446797999648e+00 4.023578382831000333e+00 4.049429954974000267e+00 1.995514103374000037e+00 2.042788042409999782e+00 1.980121849462999961e+00 1.971550007085999923e+00 1.964933828336000055e+00 6.300383463802000428e+00 1.973798005451999904e+00 5.900160687612999943e+00 1.911869995883999973e+00 1.951886906644000108e+00 5.726599190505999637e+00 6.265712142984000366e+00 5.951404009250000016e+00 1.945470411777999953e+00 2.090608898263000004e+00 5.790103126420000024e+00 1.986287337682000054e+00 6.297839360672999653e+00 5.816220598081000226e+00 5.845381525668000400e+00 1.888704051699999997e+00 5.883939056338999940e+00 5.897314298363999896e+00 6.287932981393000276e+00 5.733847423599999771e-02 2.099457352126000043e+00 1.879905785724999889e+00 5.863485644500000121e-02 1.865267238129999949e+00 5.751332704776999982e+00 7.756497262815999605e+00 5.627600732749000301e+00 1.618804608230000053e+00 5.588978490399999777e-02 5.794262738532999890e+00 6.123276602347000441e+00 3.859031600939000217e+00 1.864888685593999895e+00 1.606965637253999990e+00 3.944122113639000116e+00 1.904282739489000065e+00 6.062176812184000063e+00 3.925855055245000003e+00 6.125443669013000303e+00 1.639709653531000066e+00 3.965726566867000091e+00 5.762398552757000303e+00 5.875681744279000362e+00 1.719853175646000043e+00 7.084669600399999545e-02 1.748449405377000110e+00 1.906584760012000057e+00 7.735169186261999563e+00 5.813892068052999740e+00 2.182162650402000192e+00 3.959212798422000024e+00 1.848425206516000063e+00 2.075780117849999939e+00 3.897991353855000174e+00 5.988285637986000332e+00 6.053082127705000204e+00 9.672083861000000185e-03 1.646841312842000082e+00 5.800081361031000249e+00 7.731962698144999813e+00 5.955781618089999618e+00 5.691345732502999688e+00 3.858083897165000220e+00 1.358062898872999913e+00 6.098078837756999881e+00 3.885498103279000137e+00 6.117497854291999992e+00 2.000602966690999907e+00 2.123790513656000023e+00 3.769132705957999985e+00 2.022581497025000008e+00 2.042620498854999855e+00 8.095920268398000275e+00 1.966649400114999890e+00 5.983700480169000357e+00 3.737890361034999831e+00 1.884900140352999909e+00 5.715224647280000347e+00 8.104277566958000278e+00 5.779984651131999662e+00 2.060210406741000089e+00 3.804452751951000078e+00 5.883830897125999826e+00 1.808047942351999948e+00 8.099950100978000833e+00 5.779736577409999576e+00 5.721674896218000406e+00 3.771198549721999971e+00 5.908163577539999878e+00 6.085975854804999585e+00 8.131403565536999167e+00
8.729983843800000198e-02 7.801122957556000159e+00 7.365424914599999484e-02 7.760039454981000340e+00 7.693050526910999665e+00 4.415858259709000144e+00 7.505235279516999647e+00 3.949565731180999961e+00 8.475430628034999359e+00 2.264913849119999933e-01 3.607939279405000033e+00 4.240586606672000158e+00 3.947527579317000157e+00 1.983467942019999930e-01 8.342665260157000162e+00 3.909573585466000090e+00 7.771843798071000009e+00 4.292256058716000133e+00 3.644413677808000074e+00 3.892164487262999906e+00 8.498768876338999689e+00 4.042034230870999778e+00 4.046313474246000297e+00 4.029799991785999680e+00 1.965731974449999919e+00 1.983099521696999989e+00 1.991591978295000009e+00 1.950559111355999908e+00 2.002552420429000168e+00 6.288299426230000044e+00 1.966589113243000009e+00 5.891123624222999844e+00 1.960464745049999902e+00 1.911421103279999922e+00 5.746725497126999649e+00 6.338344893701999716e+00 5.931521912434999599e+00 1.971725438101999961e+00 2.101098245394999786e+00 5.821925873868000423e+00 2.022620427237999952e+00 6.348702775850999735e+00 5.852001108421999831e+00 5.920530185955000135e+00 1.932690709482000058e+00 5.884412045560999616e+00 5.882575009481000095e+00 6.293228714947000313e+00 2.690701603800000133e-02 2.111044720609999814e+00 1.908438324762999905e+00 1.697244252389999986e-01 1.822035630412000007e+00 5.764058120186000167e+00 7.756925883927999976e+00 5.619532283003000117e+00 1.699541973657999971e+00 1.636302174020000111e-01 5.796353025271000270e+00 6.137724805681999740e+00 3.887304677619999982e+00 1.852189551569999981e+00 1.673268497036999980e+00 3.913930153328999850e+00 1.809012434717000017e+00 6.107763016022000002e+00 3.903276272104999833e+00 6.133486824972999685e+00 1.725805533244000101e+00 4.019150639728000129e+00 5.731129202199999995e+00 5.865434060843999653e+00 1.726700757438000000e+00 9.828712089100000160e-02 1.756311829906999966e+00 1.890238255109000010e+00 5.708582437700000095e-02 5.780598890209000196e+00 2.177003832365000058e+00 4.023084738958999651e+00 1.912453294577000085e+00 2.113522361904999869e+00 3.872651130737000180e+00 5.999898992281999632e+00 6.055634787956999610e+00 2.975033784600000092e-02 1.709276688185999982e+00 5.829486690827000217e+00 7.690999391152000264e+00 5.987696327686999886e+00 5.768948183034999566e+00 3.805366253518000175e+00 1.381596726951999976e+00 6.140654150838999570e+00 3.783448499691000055e+00 6.054704058028000269e+00 1.970089909508000003e+00 2.154049110028999792e+00 3.741550959541999788e+00 2.022329640311999910e+00 2.042525469465000132e+00 8.139957680006000729e+00 1.970349556431999938e+00 6.027390436619000091e+00 3.761418763140000010e+00 1.897243695675999930e+00 5.760326307731999940e+00 8.118294257153999993e+00 5.840527225633000086e+00 2.081536530479000113e+00 3.872276936051000096e+00 5.931416507191999976e+00 1.841379139055999925e+00 8.107218021988000345e+00 5.711012879623000416e+00 5.702307715369999919e+00 3.734227811894999860e+00 5.888288462085999875e+00 6.070187392621999578e+00 8.069652154086000451e+00
9.339714341999999503e-02 7.811261659344999941e+00 7.663934316199999541e-02 7.766929569624999807e+00 7.683466951995000294e+00 4.430432711079999919e+00 7.487693272529000410e+00 3.957453588888999896e+00 8.472494027644000170e+00 2.454505568500000012e-01 3.590390280529000222e+00 4.234888130645999560e+00 3.960997829511999857e+00 2.175064910160000031e-01 8.334532618753000222e+00 3.913789508628000124e+00 7.774777066703999928e+00 4.296515327816000429e+00 3.626261735439999967e+00 3.899043962919999995e+00 8.495067100809000848e+00 4.063812631025999877e+00 4.068871891804000107e+00 4.010150622807000076e+00 1.942964726985999979e+00 1.916238951952000003e+00 2.005003244097999904e+00 1.944453877116999907e+00 2.020329652462999892e+00 6.285012753014999731e+00 1.958213926823000106e+00 5.889556915652000235e+00 2.035497104191999806e+00 1.898981133986999970e+00 5.787940425846000103e+00 6.401090548762000232e+00 5.898634355431999765e+00 1.995732962936999977e+00 2.092630546592999963e+00 5.852308602221000022e+00 2.042582994921999795e+00 6.378233197392000342e+00 5.883605690927000254e+00 5.998493590829999889e+00 1.984872233870000002e+00 5.870847382004000359e+00 5.856003646619999614e+00 6.302796218653000437e+00 7.777042947712000220e+00 2.147883414937000079e+00 1.897064560752999895e+00 1.894242710509999872e-01 1.811880778296000027e+00 5.826192566012999841e+00 7.765903155031000260e+00 5.652270196596999696e+00 1.762558854144999909e+00 1.545995025380000054e-01 5.808762905525999720e+00 6.103958704303000360e+00 3.945725184734000024e+00 1.829206841491000102e+00 1.733748181928000065e+00 3.931002608633999973e+00 1.729604433065000002e+00 6.151500845245999827e+00 3.885125801518999999e+00 6.115104511502000406e+00 1.782035734046000020e+00 4.059064767208999669e+00 5.708979948776000235e+00 5.878232282189999935e+00 1.749693680016999986e+00 9.336609768999999670e-02 1.737583786635999994e+00 1.938897741542999986e+00 1.255668473200000079e-01 5.795034223639000004e+00 2.175303073718999780e+00 4.055034088452999619e+00 1.918508183574999970e+00 2.126946089261999795e+00 3.848793600952999938e+00 5.997160339853000011e+00 6.055835162750000222e+00 5.263392413799999892e-02 1.790087191026999980e+00 5.896256546794999664e+00 7.705269310658000137e+00 5.987099865883999783e+00 5.802074289885999825e+00 3.796593204310000136e+00 1.471174856104999984e+00 6.141642140665999783e+00 3.730065518971999783e+00 6.009346547058999732e+00 1.979681071054000041e+00 2.140790968904000113e+00 3.770760022119000077e+00 1.988607596095999908e+00 2.027678163510000076e+00 8.155664993913999794e+00 1.981071217186000100e+00 6.042215567160000411e+00 3.784236415941999887e+00 1.941600738753000099e+00 5.829000557299999663e+00 8.153059382192999749e+00 5.897029221541999711e+00 2.096395120381000066e+00 3.947290970221999817e+00 5.986847097158999986e+00 1.868650529516999947e+00 8.104808413326999528e+00 5.681001733381999763e+00 5.701763033986000373e+00 3.677339579862000107e+00 5.866540161530999775e+00 6.001550587119999669e+00 8.017977365291999448e+00