-3.525377375120000215e+04
-3.525221432300000015e+04
-3.525138524709999911e+04
-3.525126797419999639e+04
-3.525157918639999843e+04
-3.525189684950000083e+04
-3.525173677909999969e+04
-3.525132754610000120e+04
-3.525076584290000028e+04
-3.525019404760000180e+04
-3.525085677440000291e+04
-3.525076577720000205e+04
-3.524950425759999780e+04
-3.524900454639999953e+04
-3.524872018360000220e+04
-3.524909831200000190e+04
-3.524854618699999992e+04
-3.524830717829999776e+04
-3.524754031209999812e+04
-3.524676568430000043e+04
-3.524735906209999666e+04
-3.524718325270000059e+04
-3.524653118060000270e+04
-3.524395831750000070e+04
-3.524377618709999660e+04
-3.524388737399999809e+04
-3.524528132629999891e+04
-3.524529304240000056e+04
-3.524399362680000195e+04
-3.524470759279999766e+04
-3.524487538900000072e+04
-3.524618949640000210e+04
-3.524509881190000306e+04
-3.524522548269999970e+04
-3.524575789880000229e+04
-3.524569728110000142e+04
-3.524700662110000121e+04
-3.524755483039999672e+04
-3.524847065629999997e+04
-3.524812265509999997e+04
-3.524866068580000137e+04
-3.524893363479999971e+04
-3.524924955700000282e+04
-3.524979139720000239e+04
-3.525012229720000323e+04
-3.525024243839999690e+04
-3.525033541829999740e+04
-3.525059177869999985e+04
-3.525063555679999990e+04
-3.525084070849999989e+04
-3.525097307059999730e+04
-3.525131786899999861e+04
-3.525118717469999683e+04
-3.525123970009999903e+04
-3.525167748980000033e+04
-3.525162366179999663e+04
-3.525121245859999908e+04
-3.525137245019999682e+04
-3.525143157049999718e+04
-3.525100247970000055e+04
-3.525101055739999720e+04
-3.525103150430000096e+04
-3.525109396659999766e+04
-3.525103711840000324e+04
-3.525088357060000271e+04
-3.525082324360000348e+04
-3.525024381300000096e+04
-3.524882529829999839e+04
-3.524902875040000072e+04
-3.524907480639999994e+04
-3.524920578440000099e+04
-3.524846381249999831e+04
-3.524840231959999801e+04
-3.524780846040000324e+04
-3.524660094470000331e+04
-3.524714213659999950e+04
-3.524727249299999676e+04
-3.524697770009999658e+04
-3.524543462880000152e+04
-3.524487656689999858e+04
-3.524476248450000276e+04
-3.524498495499999990e+04
-3.524547885069999757e+04
-3.524645250749999832e+04
-3.524595166649999737e+04
-3.524537527299999783e+04
-3.524596966300000349e+04
-3.524739426819999790e+04
-3.524729729360000056e+04
-3.524719636090000131e+04
-3.524732747620000009e+04
-3.524805880349999643e+04
-3.524810739759999706e+04
-3.524856636450000224e+04
-3.524906244380000135e+04
-3.524926089920000231e+04
-3.524923804820000078e+04
-3.524964203560000169e+04
-3.524994863649999752e+04
-3.525015922339999815e+04
-3.525064803779999784e+04
-3.525105016500000056e+04
-3.525090041270000074e+04
-3.525068052439999883e+04
-3.525074716469999839e+04
-3.525138410689999728e+04
-3.525146799469999678e+04
-3.525139225530000112e+04
-3.525135220539999864e+04
-3.525094050099999731e+04
-3.525114432810000289e+04
-3.525162554010000167e+04
-3.525173617799999920e+04
-3.525113729869999952e+04
-3.525098605629999656e+04
-3.525099255740000081e+04
-3.525108772909999971e+04
-3.525110923909999838e+04
-3.525070608640000137e+04
-3.525019390939999721e+04
-3.525010930340000050e+04
-3.525001403299999947e+04
-3.524999627100000362e+04
-3.524939108500000293e+04
-3.524910818370000197e+04
-3.524852691529999720e+04
-3.524850062379999872e+04
-3.524802335129999847e+04
-3.524785126280000259e+04
-3.524795524779999687e+04
-3.524710983069999929e+04
-3.524658273100000224e+04
-3.524637693009999930e+04
-3.524668375809999998e+04
-3.524614146110000001e+04
-3.524526514730000054e+04
-3.524594822700000077e+04
-3.524593324279999797e+04
-3.524603363450000325e+04
-3.524538518749999639e+04
-3.524603074660000129e+04
-3.524609498210000311e+04
-3.524648977010000090e+04
-3.524693457260000287e+04
-3.524715543730000354e+04
-3.524780261279999831e+04
-3.524765583099999640e+04
-3.524853867549999995e+04
-3.524824089290000120e+04
-3.524861918210000294e+04
-3.524889072239999950e+04
-3.524957743450000271e+04
-3.524979731889999675e+04
-3.524943389320000279e+04
-3.524973102690000087e+04
-3.525029022619999887e+04
-3.525001646040000196e+04
-3.525085744729999715e+04
-3.525125099559999944e+04
-3.525142676670000219e+04
-3.525125981480000337e+04
-3.525095282610000140e+04
-3.525109130790000199e+04
-3.525169744019999780e+04
-3.525152299889999995e+04
-3.525136441590000322e+04
-3.525099703559999762e+04
-3.525102781759999925e+04
-3.525096524749999662e+04
-3.525085513630000059e+04
-3.525111780970000109e+04
-3.525059353879999981e+04
-3.525074963410000055e+04
-3.525045066370000131e+04
-3.525042627789999824e+04
-3.525015886529999989e+04
-3.524977439359999698e+04
-3.524935806810000213e+04
-3.524912585150000086e+04
-3.524951900639999803e+04
-3.524854773900000146e+04
-3.524782709359999717e+04
-3.524760871429999679e+04
-3.524736610259999725e+04
-3.524745927710000251e+04
-3.524789161389999936e+04
-3.524755186279999907e+04
-3.524544450340000185e+04
-3.524499097130000155e+04
-3.524604029669999727e+04
-3.524724241749999783e+04
-3.524598574119999830e+04
-3.524529813080000167e+04
-3.524570091050000337e+04
-3.524607278470000165e+04
-3.524614110010000149e+04
-3.524616721349999716e+04
-3.524705818829999771e+04
-3.524753240750000259e+04
-3.524685790860000270e+04
-3.524767296499999793e+04
-3.524823253839999961e+04
-3.524878374900000199e+04
-3.524911961159999919e+04
-3.524920264770000358e+04
-3.524884940220000135e+04
-3.524904426860000240e+04
-3.524923082019999856e+04
-3.524978195009999763e+04
-3.525056857190000301e+04
-3.525086951229999977e+04
-3.525089364529999875e+04
-3.525047858129999804e+04
-3.525070698409999750e+04
-3.525108542599999782e+04
-3.525165483040000254e+04
-3.525116429610000341e+04
-3.525128066399999807e+04
-3.525098634750000201e+04
-3.525127509879999707e+04
-3.525158661769999890e+04
-3.525145028879999882e+04
-3.525134573249999812e+04
-3.525117156000000250e+04
-3.525054974370000127e+04
-3.525079633350000222e+04
-3.525093199920000188e+04
-3.525060483760000352e+04
-3.525050844269999652e+04
-3.524971868289999838e+04
-3.524942477930000314e+04
-3.524917546009999933e+04
-3.524928213510000205e+04
-3.524953278080000018e+04
-3.524864909159999661e+04
-3.524863332570000057e+04
-3.524830403949999891e+04
-3.524771434639999643e+04
-3.524744333229999756e+04
-3.524681446989999677e+04
-3.524687095160000172e+04
-3.524637547590000031e+04
-3.524676942189999681e+04
-3.524633548439999868e+04
-3.524634076980000100e+04
-3.524658296140000311e+04
-3.524562743439999758e+04
-3.524606781069999852e+04
