-1.881149346199999933e-02 -1.759126025000000079e-02 -1.180415806650000066e-01 -8.628049880099999958e-02 -3.465067895099999823e-02 -1.147025850110000023e-01 6.108356825100000331e-02 1.917597209599999908e-02 -3.061405290500000126e-02 -6.685326189399999619e-02 6.941325789400000501e-02 -1.658968654169999946e-01 2.755113405999999945e-02 -1.323657553200000003e-01 -1.521769377340000118e-01 9.641654100299999752e-02 1.797433387099999988e-02 -9.345528690700000141e-02 1.677820835899999918e-02 1.052392019489999941e-01 -9.620422540400000444e-02 3.925387056600000008e-02 -1.023246023400000045e-02 -1.132681829659999972e-01 -2.394404595369999944e-01 8.380432440299999397e-02 5.019038000729999505e-01 6.763535967900000112e-02 -4.789617304299999961e-02 -5.874239435210000249e-01 7.970770099999999886e-03 -1.685739914640000114e-01 -1.563289650789999874e-01 1.207378639599999970e-02 1.882692281270000045e-01 3.900261277589999742e-01 1.762607451590000041e-01 -5.133684682999999777e-03 2.323047669520000025e-01 -9.230588648300000476e-02 -1.910451000020000067e-01 -1.396172583800000047e-02 1.814509725199999965e-02 1.096283911800000066e-02 4.972531905559999799e-01 5.159244220399999969e-02 1.637123871529999886e-01 -7.236936926499999700e-02 9.874891904900000295e-02 -1.559083237639999897e-01 1.120721538200000061e-02 2.259607299589999896e-01 4.531969376799999810e-02 -3.829420495500000104e-02 3.661711344000000146e-03 -5.421253010200000055e-02 3.098375243599999981e-02 -2.369336915639999874e-01 -7.923481387599999592e-02 1.268010945499999931e-01 -1.384178736289999878e-01 4.358174813900000250e-02 -4.339213811300000195e-02 -3.740449131779999825e-01 -1.523127306399999978e-02 1.034521167720000023e-01 4.694962339400000212e-02 -1.641549392999999907e-03 4.114334660999999921e-02 -1.813151673370000105e-01 -5.544626562600000336e-02 3.499047152299999963e-02 -6.109125050199999685e-02 8.138100950000000432e-04 2.599553690600000036e-02 -3.590535310999999792e-03 2.244792841619999979e-01 -4.891636157899999920e-02 6.131491641600000236e-02 -1.991538521879999968e-01 -3.132805528999999846e-03 1.380793481710000103e-01 -5.115197358649999915e-01 1.012136826020000047e-01 -1.744755310400000065e-02 3.261682664880000138e-01 -9.911564059199999555e-02 7.248046110200000169e-02 5.110840804600000342e-02 1.244259689429999954e-01 -4.820893564999999617e-03 6.588196371799999451e-02 -1.683051848060000133e-01 2.650753798339999801e-01 1.309876819080000032e-01 -5.114507490399999856e-02 -5.790335757099999980e-02 9.946248027199999786e-02 -4.417033151520000089e-01 7.506432752599999370e-02 9.551371800100000309e-02 4.721051212230000238e-01 -5.565779875000000272e-03 1.191382337030000016e-01 1.889812235320000033e-01 -9.540093112000000777e-03 -5.367821291999999751e-03 -1.837040163929999914e-01 3.425897456600000140e-02 -2.240361908299999885e-02 3.504102118300000263e-02 -7.638282140000000452e-04 -1.406705308700000046e-02 2.630940778229999832e-01 -2.658727504399999858e-02 -9.755567641399999490e-02 -2.707269113540000105e-01 2.535789779200000107e-02 -4.177521521099999968e-02 -1.180431407349999962e-01
-6.227298198899999804e-02 3.247005763900000230e-02 -2.331705061190000039e-01 -4.665250164220000051e-01 -9.762685567499999884e-02 -3.624399820020000051e-01 4.237270048649999787e-01 -3.008310431200000162e-02 2.121562236879999952e-01 -4.392710457499999777e-01 3.691165123949999849e-01 -7.312397258830000135e-01 5.584594851900000212e-02 -5.946981280109999712e-01 -4.091834767559999753e-01 4.318246565659999980e-01 6.648629879600000125e-02 -1.778044650850000019e-01 3.657212620199999653e-02 4.304355089229999765e-01 -7.613599380299999886e-02 2.662484758940000251e-01 -7.435308650199999592e-02 -2.472185051019999968e-01 -1.214941678356000088e+00 4.277159679690000216e-01 1.420995663697999900e+00 3.582064179750000243e-01 -4.130400031359999780e-01 -2.477642522022000193e+00 6.749549769000000310e-02 -8.665632474959999998e-01 -6.841141786090000343e-01 6.065636775399999708e-02 1.642666632320999964e+00 1.436496542323000059e+00 9.186527715350000234e-01 6.583306743300000596e-02 8.498501331259999958e-01 -5.763294182570000146e-01 -8.899349594000000030e-01 9.909518197999999181e-03 9.422127000900000493e-02 2.101290682599999890e-02 1.784116150942999912e+00 2.177257962080000053e-01 8.000321544120000405e-01 -5.627277555640000095e-01 1.639556426769999964e-01 -8.449103964320000548e-01 9.108083281499999850e-02 9.071171663170000121e-01 2.022826268019999874e-01 -3.116387317400000079e-01 9.982597052500000179e-02 -2.826726018810000185e-01 2.403241177800000128e-01 -8.940749316699999616e-01 -5.338731356360000291e-01 7.673747070580000385e-01 -4.115535070510000226e-01 2.997626404059999805e-01 -1.944525495299999907e-01 -1.447517752772000010e+00 -2.912513027079999817e-01 4.234105373559999830e-01 2.023767953379999873e-01 2.625167506800000009e-02 2.804452227379999885e-01 -1.052045451929999986e+00 -3.270009067649999879e-01 1.158651591540000025e-01 -3.384916672330000043e-01 -3.792421126869999770e-01 8.051105302699999855e-02 -7.328163658500000399e-02 8.257347233109999518e-01 -2.943560369809999910e-01 3.308582011499999753e-01 -7.360929479910000017e-01 -3.000994227299999886e-02 7.854942091150000083e-01 -2.563967106488000081e+00 4.679411251039999886e-01 -1.214522981469999957e-01 1.696336346779999893e+00 -4.861757029439999767e-01 4.798025946380000128e-01 3.977327940989999755e-01 7.055835975349999956e-01 -1.571929022999999856e-02 4.317521248410000068e-01 -8.634188107400000423e-01 1.296515245336000044e+00 5.004496689609999605e-01 -1.908810805910000075e-01 -4.019578355039999940e-01 6.398623949759999485e-01 -1.468230660079999916e+00 3.673338989839999846e-01 5.294395335770000210e-01 1.845884378700000106e+00 -4.468294268399999880e-02 6.408401422480000109e-01 4.938858496440000079e-01 -8.224001532199999576e-02 -6.379665444099999472e-02 -7.339389498899999698e-01 2.032773800799999864e-01 -1.818897738330000069e-01 2.449238758379999881e-01 -1.304276971000000070e-03 -2.007799947899999854e-02 7.641110283590000218e-01 -2.020301566549999872e-01 -5.989102899470000185e-01 -9.128800730120000262e-01 7.795846615199999996e-02 -2.562291649610000110e-01 -7.872060683549999549e-01
1.438757349900000003e-02 4.541680650189999779e-01 -3.292395368130000000e-01 -6.529997365320000524e-01 9.053839319199999403e-02 -7.880559990590000341e-01 8.244491261180000308e-01 -4.390710413460000017e-01 2.281726919260000097e-01 -6.496301515469999899e-01 5.528533579890000382e-01 -1.154589875197999937e+00 -1.064921749639999998e-01 -4.894771226219999938e-01 -4.354860514700000240e-01 5.309749585730000332e-01 6.013587921300000277e-02 -4.426713137130000031e-01 -8.456677291999999818e-03 2.113332971549999884e-01 -1.110777724909999958e-01 2.646103972850000208e-01 -1.259873980239999969e-01 -2.435995014169999862e-01 -1.711040043504000074e+00 4.544063935709999891e-01 7.373139545199999811e-02 2.145500346679999892e-01 3.235410995820000024e-01 -6.684176774000000383e-03 2.304280643090000080e-01 -1.217553288164999969e+00 -6.299630661400000553e-02 -2.177977971869999863e-01 1.060123715795999955e+00 8.595164512359999565e-01 1.029616911533999923e+00 2.569207593699999737e-01 9.578317855410000137e-01 -6.743418106099999809e-01 -9.951491464649999674e-01 6.605507466640000436e-01 9.911764201000000662e-02 2.352360027900000095e-01 1.536863449996999975e+00 2.275497019949999922e-01 9.976531357060000049e-01 -6.748423763649999962e-01 -3.076660818770000083e-01 -1.087823686773000009e+00 2.790284363759999997e-01 1.178541066649999997e-01 9.220419811900000540e-02 -5.094039254279999485e-01 5.613059676400000003e-02 -3.592853920679999757e-01 4.302987329579999742e-01 -6.335575087539999650e-01 -1.001627236522000031e+00 1.301934571846000033e+00 7.245739881399999860e-02 4.258937281569999955e-01 -1.142890478929999981e-01 -5.949389320179999663e-01 -5.033042578030000325e-01 5.130689115159999814e-01 2.648064337079999997e-01 8.940012116100000406e-02 5.094760379939999861e-01 -1.215878538441000023e+00 -3.526655346440000227e-01 6.753787119500000158e-02 -4.993805399979999726e-01 -1.124555062416999984e+00 1.895959623579999975e-01 -2.024885679869999899e-01 -1.333254033669999949e-01 -6.097748855729999695e-01 3.994496202360000026e-01 -2.818809181699999944e-01 8.187350763999999559e-02 1.246253800932999978e+00 -1.391605888895000032e+00 9.282650679130000082e-01 -1.194727094829999975e-01 1.392281134946000032e+00 -6.081859123659999478e-01 6.112739328620000467e-01 6.532059375590000272e-01 1.017938524997999972e+00 9.733542963300000073e-02 7.510832070109999536e-01 -1.156469829985999898e+00 1.641155121273000006e+00 -6.920722778000000172e-03 -3.772786444819999918e-01 -6.310151608380000221e-01 7.802710681600000253e-01 -5.138868336599999864e-01 6.103884404720000267e-01 6.755007526640000037e-01 -1.932464069840000020e-01 -1.487769487060000007e-01 9.824794466499999768e-01 1.390700039000000027e-02 -2.096191456050000013e-01 -3.128558977100000249e-02 -4.547572839890000052e-01 2.625275034990000034e-01 -2.640527241730000196e-01 7.398326682889999617e-01 4.346423697599999941e-02 1.178576063320000006e-01 -1.447677507410000119e-01 -3.360305766300000219e-01 -6.291729940410000221e-01 -3.775309569899999995e-01 6.080207014700000218e-02 -2.223438921010000013e-01 -1.080589426284999988e+00
1.531067180079999923e-01 7.831289372199999876e-01 -4.450433352000000009e-01 -5.565689289999999900e-01 1.567069622800000006e-01 -7.699530000709999822e-01 1.029482747392999942e+00 -7.935160219560000172e-01 5.936496365800000147e-02 -5.070862056960000475e-01 6.354190275979999525e-01 -8.480812788980000017e-01 -3.234672538450000245e-01 -2.060012507679999938e-01 -2.746310091949999976e-01 4.893095021889999896e-01 1.180248353930000021e-01 -5.363601901550000273e-01 9.960585376000000157e-02 -1.521151937150000133e-01 -3.327960978660000069e-01 9.612159073300000078e-02 -2.282767406679999944e-01 4.422771165199999854e-02 -1.556155550264000098e+00 -1.024410958109999992e-01 -2.300791787339000027e+00 -5.118901713340000548e-01 1.739059347725000038e+00 1.845318788221000039e+00 3.777870697779999731e-01 -1.199620855173999967e+00 5.969100638259999814e-01 -6.842167816490000165e-01 -2.362410067079999954e-01 -6.926159685080000017e-01 4.711716585929999757e-01 1.104180146095000037e+00 1.127480498329999969e+00 -2.566849933720000143e-01 -6.569844929670000111e-01 7.912324319079999668e-01 3.784592974499999957e-02 4.074020987170000052e-01 -1.911985573420000029e-01 7.734340060100000636e-02 7.156743523730000334e-01 -1.168072929605999954e+00 -3.953230513370000199e-01 -8.798465069540000183e-01 3.591423397419999941e-01 -8.405761007019999509e-01 -1.967616382350000082e-01 -5.745576124769999904e-01 -2.800228470380000112e-01 -2.670764100970000055e-01 4.491933684960000006e-01 -2.814418834040000039e-01 -9.431382784430000221e-01 1.121216856760000047e+00 2.185870867880000123e-01 3.832668125770000156e-01 1.478179349419999900e-01 1.158101340736999996e+00 -4.460510096920000112e-01 2.993677256860000080e-01 2.877097506949999883e-01 1.673828453339999967e-01 5.830515103869999827e-01 -2.001258602210000126e-01 -2.393534947869999929e-01 -1.187520649340000067e-01 -3.784505286509999844e-01 -8.499698890819999963e-01 2.933191079029999759e-01 -4.190179570109999752e-01 -1.533042130706999906e+00 -8.848300278449999778e-01 1.812164508880000080e-01 3.016580383670000032e-01 3.345146158510000078e-01 1.089126543264000047e+00 7.454848427479999762e-01 6.803772528029999878e-01 -3.782348867399999703e-02 -4.343513623859999728e-01 -5.032168461489999745e-01 2.679476254509999822e-01 2.560380402360000196e-01 8.566363927560000091e-01 3.860399669960000169e-01 4.586711845590000225e-01 -1.015077405620999906e+00 1.272995235245000023e+00 -4.963795590289999948e-01 -6.721368746500000491e-01 -6.440283586110000513e-01 4.787705503460000234e-01 1.170752146782999992e+00 6.154205266810000019e-01 3.697544812740000131e-01 -1.247118265524000069e+00 -2.359580850449999878e-01 9.656567387079999509e-01 -1.543951972210000079e-01 -3.255301890289999944e-01 5.014103822899999841e-02 9.397943523559999512e-01 3.078619788420000059e-01 -1.515359875420000113e-01 6.903793411319999462e-01 1.085540513149999969e-01 3.126426686900000140e-01 -6.283294839499999895e-01 -3.399764378740000037e-01 -1.624703429540000077e-01 1.229616876224000066e+00 4.900964505799999815e-02 2.611031920700000036e-02 -2.617563468620000000e-01
1.051449198940000024e-01 5.112247422529999641e-01 -5.727124558449999681e-01 -3.351636912659999856e-01 -3.073510623700000111e-02 -3.593555693730000056e-01 9.213421471279999997e-01 -6.187848912109999988e-01 -3.071319268730000052e-01 -3.753635380159999757e-01 6.046774007140000018e-01 -1.563520043870000042e-01 -3.039813276080000071e-01 -2.199180911989999931e-01 -1.194127816170000023e-01 3.441095520040000078e-01 2.318250849390000035e-01 -3.942134316559999796e-01 4.232275617979999738e-01 -1.353040364929999906e-01 -8.859243741519999826e-01 4.065199576600000281e-02 -3.710436126830000125e-01 4.287014633599999791e-01 -8.661940230169999921e-01 -9.431544913570000244e-01 -1.775466189767000103e+00 -8.322799271699999890e-01 1.378309788423000004e+00 1.264595996544999990e+00 2.580613711740000205e-01 -1.152975909445000058e+00 5.937640042370000426e-01 -1.181059288212999991e+00 -6.386335323570000444e-01 -6.609105659430000168e-01 -5.927725340070000293e-01 1.852874534501000037e+00 1.409383455986999989e+00 5.824342017999999642e-03 2.184246713440000098e-01 1.509768920669999903e-01 1.823720374170000047e-01 9.936979599170000510e-01 -8.667712189220000418e-01 -1.940150297799999868e-01 -8.471254579199999357e-02 -1.823344826487000025e+00 3.409925935220000093e-01 -3.699987083790000075e-01 1.919305106480000134e-01 -2.228360904870000103e-01 -3.439038355530000257e-01 -4.610585926529999767e-01 -5.164931053560000151e-01 -1.233612296659999941e-01 3.247181232290000108e-01 3.723867256799999748e-01 -2.900350676690000018e-01 2.844018269129999776e-01 -2.550486897650000029e-01 2.126349349290000135e-01 4.292712878270000254e-01 1.567588229469000005e+00 -5.341994352219999742e-01 1.051840216700000025e-01 2.085588869630000119e-01 1.238156237470000032e-01 5.157632708820000245e-01 1.177961902987999965e+00 -2.101427844360000130e-01 -3.402938260949999738e-01 -5.768600031200000339e-02 6.019880558510000146e-01 1.652157837190000034e-01 -6.336752914090000299e-01 -5.044506083790000206e-01 -8.020634443070000508e-01 -2.876487102459999723e-01 3.127304484249999739e-01 5.976136564339999957e-01 2.697092516769999948e-01 1.622581403779000064e+00 -3.237058529700000131e-02 -2.661919132900000123e-02 -1.785034124852999948e+00 -2.702809104059999967e-01 -1.714466889640000047e-01 -8.292504930470000479e-01 3.501719170409999804e-01 6.789643104410000296e-01 -5.762097362089999564e-01 -5.040785046219999899e-01 5.241922953540000263e-01 -3.372525865259999867e-01 -7.926410955839999772e-01 -5.651127947690000042e-01 2.138858296660000047e-01 3.831129468600000254e-01 3.174989818130000141e-01 -5.987099036600000007e-02 -5.173975749289999593e-01 -2.084531824620000084e-01 5.532029657570000092e-01 2.581562419389999974e-01 -3.112341619399999759e-01 9.302502805300000288e-02 1.369221954918000028e+00 3.894587622260000104e-01 1.524713383199999966e-02 -1.049832724110000004e-01 1.597133845829999954e-01 3.065713268029999772e-01 2.497616790780000096e-01 -3.503684613099999900e-01 7.984238275299999910e-02 1.664415165299000021e+00 -3.075244879999999934e-04 2.324125013929999872e-01 1.010402952671999977e+00
-2.788375892400000167e-01 -9.684948096900000691e-02 -5.586635309180000286e-01 -1.262749470489999970e-01 -1.672575025499999923e-01 -2.165746074519999953e-01 6.087363285339999486e-01 -9.804260690499999598e-02 -6.777630608350000418e-01 -4.896033173789999804e-01 6.218134338440000075e-01 2.137686394440000137e-01 1.014963606490000003e-01 -4.637371776140000179e-01 1.329056388510000131e-01 1.790192434100000007e-01 1.707639660889999911e-01 -2.533651622440000195e-01 7.615779201560000100e-01 1.784507055529999942e-01 -1.306819221909000017e+00 7.363285929099999683e-02 -3.133634192909999783e-01 6.709293458220000339e-01 -1.934908068500000022e-01 -1.467482337317000063e+00 4.523138680980000048e-01 -3.492954627789999766e-01 6.316632047500000402e-01 -1.056588463753000084e+00 -1.828960695709999917e-01 -5.361549057209999969e-01 3.331640234480000018e-01 -8.727328532329999833e-01 -5.265661886400000435e-01 1.045073469634999919e+00 -1.400124045662999972e+00 3.713486258490000247e-01 8.616004021940000257e-01 2.359082197400000080e-01 1.028931647904000046e+00 -1.732568560090000098e-01 5.594681317969999457e-01 1.468181237875999967e+00 6.284649049360000461e-01 -4.268657744420000233e-01 -7.607287511470000041e-01 -5.509514310869999543e-01 8.068798151249999551e-01 1.052879367019999984e-01 -2.850254053600000115e-02 1.145602764351000058e+00 -3.209572296529999980e-01 -1.533540930249999990e-01 -2.461397581789999955e-01 -5.039692483000000368e-03 3.265968319670000120e-01 1.384701371440999917e+00 3.214522843140000252e-01 -4.929208039249999840e-01 -4.191197329649999914e-01 -2.232503996000000102e-02 5.085863740189999760e-01 -1.062827743850000006e-01 -5.986094709389999657e-01 1.147159658100000042e-02 -1.036651822410000062e-01 -7.010286218099999467e-02 4.224057108150000017e-01 1.025590097573999993e+00 -1.908435468399999890e-01 -3.244852993810000141e-01 2.505321187330000199e-01 1.209831270525999924e+00 -2.862861080400000077e-02 -5.450307203950000012e-01 1.217887206457000104e+00 -3.657282341779999890e-01 -5.767791197439999795e-01 1.722986731199999955e-01 5.454224772969999968e-01 -3.074330332079999728e-01 9.728200374550000085e-01 -3.245063470369999870e-01 -1.537648786030000048e-01 -3.878213829459999928e-01 2.473577637730000056e-01 -2.684270389749999763e-01 -1.523263068891000049e+00 -1.651024038189999876e-01 8.196043809759999688e-01 -1.147613844132000072e+00 2.032454266229999917e-01 -2.350927528810000111e-01 -1.964483958659999918e-01 -6.387039939730000393e-01 -3.710003474229999765e-01 1.281350201299999957e-02 -1.133918071027999908e+00 -1.198006744409999963e-01 -2.491712121319999973e-01 9.673624528069999506e-01 -6.521227770699999926e-02 -2.117759147599999892e-02 5.468385153250000519e-01 -7.590552465100000590e-02 2.122066138200000007e-01 -9.427212508000000490e-02 4.394717129140000011e-01 9.499013284500000542e-02 -8.138055102290000509e-01 2.031316404319999935e-01 2.556096152019999845e-01 1.029338211183000062e+00 -4.920100713839999917e-01 2.631063766099999909e-02 -9.779211246100000254e-02 -1.895682117359999974e-01 9.089497567099999453e-02 3.088568268649999893e-01
-5.589702557450000331e-01 -3.538008667109999728e-01 -4.192084581250000164e-01 2.362846641909999990e-01 -2.886811995849999923e-01 -3.706485099469999933e-01 4.044105900270000276e-01 1.377547515879999906e-01 -6.616659963169999603e-01 -5.930963933639999963e-01 8.634594741109999916e-01 8.585433441400000532e-02 4.503231321269999810e-01 -5.751843300590000485e-01 5.168226401150000093e-01 -1.172647256190000042e-01 -1.831627978510000088e-01 -1.872027716980000089e-01 9.211075652250000356e-01 3.464687469350000160e-01 -9.217218500420000238e-01 -1.991295578600000074e-02 8.654606416000000524e-03 6.227739092330000226e-01 6.067923969999999834e-02 -1.492756533626999893e+00 1.342632287730000096e+00 -3.420368931080000063e-01 4.175032043400000309e-02 -1.791424635090000050e+00 -5.897120507230000364e-01 4.931273715550000269e-01 6.888593253039999587e-01 -4.075556844600000117e-01 4.608979383780000272e-01 1.606691004670000034e+00 -1.065260001384999988e+00 -5.279754811629999711e-01 -9.562238135189999877e-01 1.125336569022999944e+00 9.199152244039999760e-01 5.786046865039999876e-01 7.077652023520000224e-01 9.651920477009999777e-01 1.118136888843999976e+00 -1.256174496759999981e-01 -9.122184506839999818e-01 8.538968661029999740e-01 -9.680354670599999878e-02 3.949356414599999865e-01 -2.085052106280000095e-01 1.278449790675000086e+00 -2.503146953300000033e-01 4.152826008700000182e-01 2.444919867170000094e-01 2.021348790009999952e-01 3.396628847329999923e-01 1.325266260320999923e+00 5.510142146609999791e-01 -7.755053180209999786e-01 1.377136745460000034e-01 -2.693254288649999939e-01 3.331807110380000103e-01 -1.437350763086000072e+00 -3.220620861380000255e-01 -1.878437635359999913e-01 -5.333210668360000017e-01 -3.699881347530000197e-01 2.622729061960000219e-01 2.699842604199999968e-02 -5.398473755999999568e-03 -9.398539652199999761e-02 4.964133230350000203e-01 3.496532925570000061e-01 -2.195405642190000062e-01 7.396875424500000407e-02 1.567042828571000079e+00 2.179055597229999919e-01 -3.851504559569999819e-01 3.699345332160000055e-01 5.015702803799999832e-02 -4.475847917870000026e-01 -5.750135476519999678e-01 -3.853383083069999993e-01 -2.476626721680000032e-01 7.171757756180000554e-01 7.567206981009999556e-01 -2.715717870100000167e-02 -4.184435553970000110e-01 -3.888341070390000098e-01 5.573725128350000002e-01 -5.030173107280000444e-01 9.520684868030000469e-01 -8.179900996960000059e-01 -6.772061487220000231e-01 -3.750142935229999752e-01 5.890463904099999676e-02 -2.542147583259999899e-01 -7.653492660949999804e-01 -4.018126806310000076e-01 -2.983938993140000107e-01 8.291967917339999605e-01 1.371743222029999931e-01 -4.803256614320000062e-01 7.210755289499999610e-02 2.885216208340000144e-01 3.518719256010000018e-01 -8.226883399619999704e-01 2.275949570099999875e-01 1.016765403649999983e-01 -9.852633885500000632e-02 1.597779668450000079e-01 2.454490472180000105e-01 -4.143979402499999715e-02 -3.608367383800000217e-01 3.859038483300000072e-02 -1.053276798249999979e+00 -3.434587931799999994e-01 -3.692161845340000137e-01 -9.188836293280000511e-01
-4.987960630400000150e-01 -2.272232497689999908e-01 -2.060926673729999992e-01 6.708227695120000389e-01 -3.494309616960000198e-01 -6.298662389400000450e-01 5.660686559640000226e-01 8.011994438599999435e-02 -3.341327737509999785e-01 -6.202841778400000061e-01 1.150043677231999961e+00 -2.887824675180000189e-01 3.666752189799999950e-01 -4.680826982840000094e-01 8.540521422050000311e-01 -4.943933329190000059e-01 -4.256869979490000011e-01 -1.286615391010000053e-01 8.384251636220000359e-01 2.668108905359999894e-01 -1.256061258089999910e-01 -2.876303595420000025e-01 1.724393168080000094e-01 4.604285538549999779e-01 2.601422794900000168e-01 -9.685652363440000467e-01 7.711005422469999759e-01 -2.123619317459999878e-01 -6.576569379209999955e-01 -4.671554070980000195e-01 -4.869762555239999791e-01 6.541260372420000246e-01 1.271755551837000064e+00 -1.154123022160000039e-01 1.412455305249000093e+00 9.060697805670000493e-01 -5.184792353120000197e-01 -4.691894057880000024e-01 -2.491170423944999879e+00 9.874042549579999939e-01 5.603664555189999952e-01 5.697120086770000036e-01 4.133533322319999925e-01 4.392887095929999819e-01 9.295971792410000489e-01 -1.923358240019999998e-01 -9.261902369290000436e-01 1.158143094438000009e+00 -1.181420459171000026e+00 5.338497471750000001e-01 -4.691131567369999922e-01 1.183614978240000032e-01 1.346958389640000031e-01 9.356538758500000386e-01 3.544672125350000202e-01 4.973277767570000174e-01 9.868519908099999960e-02 -1.422936290300000073e-01 4.104801490980000134e-01 -8.196082839830000077e-01 8.163850195349999783e-01 -3.164776204570000084e-01 9.786456891099999666e-02 -5.356546384329999855e-01 1.468915921999999936e-02 -2.255570552710000065e-01 -4.242377640169999742e-01 -5.348554934139999606e-01 -9.534680551999999421e-02 -2.357362158480000025e-01 1.645394260389999863e-01 2.096748032809999940e-01 5.060436574359999939e-01 -4.780667764209999837e-01 -3.904813754629999911e-01 8.255089846530000441e-01 7.796596759310000513e-01 7.175336397570000191e-01 -5.680723638000000075e-02 3.081625669349999930e-01 -6.017859382060000151e-01 -4.167087577760000272e-01 -1.278057868157999932e+00 -4.034666399099999801e-01 -1.952823842270000054e-01 5.499745508679999562e-01 7.661495635549999683e-01 3.588717837259999821e-01 9.808966925659999836e-01 -5.035617164860000106e-01 -1.676180133650000126e-01 2.504942167359999750e-01 1.372457130014999915e+00 -9.551428251189999497e-01 -7.486978635130000503e-01 -2.399253369600000060e-02 5.085565351390000099e-01 -5.268958823479999998e-01 5.766655769470000470e-01 -5.701323589079999588e-01 -3.109983646450000250e-01 -5.449438339130000530e-01 2.172279214220000088e-01 -6.356487589320000131e-01 -3.717438572119999840e-01 5.734587088760000340e-01 4.167432934290000168e-01 -4.890010301239999801e-01 -2.989321485999999958e-02 5.960549141700000053e-02 1.138849390902000103e+00 7.797842709199999389e-02 8.984020576100000544e-02 -1.081208737804000064e+00 1.197914981960000042e-01 1.681355806909999862e-01 -1.131910460350999958e+00 -2.419459419190000127e-01 -7.730203555839999519e-01 -1.011203533153000045e+00
-3.625286539340000225e-01 1.298273865899999928e-02 -1.088545103399999985e-02 8.237440161710000153e-01 -7.716706202400000492e-02 -7.022482915209999899e-01 7.758743654480000362e-01 -2.576006024800000030e-02 1.813940862079999883e-01 -7.179150753559999654e-01 1.158998913807999909e+00 -5.443682219550000090e-01 5.507406566300000056e-02 -2.648579325659999872e-01 9.060882526310000129e-01 -5.852584113990000336e-01 -2.189387490190000118e-01 5.998531696699999777e-02 6.347920393429999919e-01 1.149302753710000069e-01 4.484527869530000044e-01 -5.852733251470000342e-01 -1.327667565279999906e-01 3.559672244239999728e-01 4.567339444979999774e-01 -1.939453487230000106e-01 -1.043090212000000010e-02 8.319642676409999549e-01 -1.054331023982999938e+00 5.628856605140000191e-01 -1.103649069399999932e-02 4.283686232300000230e-01 1.265819943419999927e+00 1.653547997585999907e+00 1.014477428536999959e+00 -6.541411723910000031e-01 -5.409979638549999859e-01 -1.451629868019999881e-01 -9.265213223360000416e-01 -1.623338684550000022e-01 -8.395370505410000295e-01 -1.129630265242000053e+00 -2.682109479209999758e-01 -1.489448673999999896e-03 3.928904095619999981e-01 -7.266782639909999952e-01 -5.028976172410000167e-01 2.922771619849999780e-01 -5.759993408529999748e-01 4.296273210580000002e-01 -6.798403498359999464e-01 -1.684841554551999909e+00 6.242270292349999528e-01 8.131740809409999660e-01 1.322399200430000032e-01 6.987039960259999738e-01 -3.653849430509999996e-01 -2.249895819435999922e+00 1.767092691649999880e-01 -8.100154795209999481e-01 5.325469980600000541e-01 -1.444809476159999995e-01 -1.375225914410000139e-01 9.221192729699999591e-01 3.498546280490000271e-01 -5.126461124599999974e-02 1.326217426309999892e-01 -4.292269127860000033e-01 -5.783513450980000137e-01 -1.857010097719999919e-01 1.864299066539999994e-01 4.175556917759999931e-01 2.508696739080000238e-01 -5.727683584870000288e-01 -4.511619572519999788e-01 1.124744622901000080e+00 -8.830832857139999659e-01 8.375739764130000209e-01 7.985185816800000058e-02 -5.647847892330000175e-01 -1.019460304684000063e+00 -4.287803850340000111e-01 5.261067412400000087e-02 -2.330832549400000120e-01 -2.322957194999999975e-02 -3.671712600000000032e-04 2.404918324529999873e-01 6.319103778839999519e-01 1.017199655493000066e+00 -5.524170477459999784e-01 -8.129034109689999843e-01 7.713354310709999995e-01 1.092582781646000090e+00 -6.934987716930000046e-01 8.573397373860000004e-01 3.762021049490000268e-01 7.044431217390000333e-01 -7.239520516490000057e-01 1.067464601913999944e+00 -5.526209397389999500e-01 -2.311970796879999901e-01 -5.041517740109999757e-01 1.114269194340000019e-01 -4.862357861830000072e-01 -8.064099280200000275e-02 5.361382025780000449e-01 3.629832563050000016e-01 4.316006083810000060e-01 -9.361338170300000094e-02 -1.236562167359999964e-01 6.019590362100000341e-02 1.034503517519999999e-01 -1.339009026630000043e-01 -1.907838970379999999e-01 7.443628847690000327e-01 3.551272289879999766e-01 -3.767492946009999844e-01 2.286054326800000119e-02 -8.613985747929999715e-01 2.064510451090000032e-01