2.086459348710506312e+00 2.629563758373116601e-03 1.657921177520015887e-01 2.629563758373116601e-03 2.656934460707584655e+00 -2.236517166201935358e-01 1.657921177520015887e-01 -2.236517166201935358e-01 4.489331035038676143e-01
3.191430289609568760e+00 2.027347468602923863e-01 1.088522765839583073e+00 2.027347468602923863e-01 7.181826010987842679e+00 -1.119455170948164158e+00 1.088522765839583073e+00 -1.119455170948164158e+00 1.306874762675542812e+00
2.430371205161597548e+00 -7.507475426438687746e-03 1.885324547912330395e+00 -7.507475426438687746e-03 7.853040664459139286e+00 -1.683434335565942908e+00 1.885324547912330395e+00 -1.683434335565942908e+00 9.772373790414222716e-01
1.898948146644805046e+00 -5.822953800082093512e-01 1.849361435280590715e+00 -5.822953800082093512e-01 8.986116838719041766e+00 -1.792205849964264130e+00 1.849361435280590715e+00 -1.792205849964264130e+00 6.891864612336988216e+00
3.051593991548144036e+00 -4.739975227522293943e-01 9.522654090038423780e-01 -4.739975227522293943e-01 1.014441106934832781e+01 -9.662080180214602798e-01 9.522654090038423780e-01 -9.662080180214602798e-01 8.773110679661980882e+00
1.651303308466358866e+00 -2.662600036113640933e-01 -1.030759355905098568e-01 -2.662600036113640933e-01 4.792110972384922896e+00 -3.956162806901023510e-01 -1.030759355905098568e-01 -3.956162806901023510e-01 -1.187854659192812273e-01
-2.753005233847236610e+00 -1.568524461143424586e-01 -6.467823912519446994e-01 -1.568524461143424586e-01 -3.178370348684550706e+00 -5.002068197076409151e-01 -6.467823912519446994e-01 -5.002068197076409151e-01 -9.395852693468189187e+00
-5.339525898580561147e+00 -4.168647864080019527e-01 -1.161236823916010019e+00 -4.168647864080019527e-01 -6.351619228445016141e+00 -7.060503924358429995e-01 -1.161236823916010019e+00 -7.060503924358429995e-01 -1.172080896087644319e+01
-2.197074405598916869e+00 -5.030189031491258955e-01 -5.929687488305598331e-01 -5.030189031491258955e-01 -2.812669470305838804e+00 -1.010180495685016000e+00 -5.929687488305598331e-01 -1.010180495685016000e+00 -6.273959929741665498e+00
-2.187908674866096526e+00 1.300497723687205412e-02 -2.238306736022213361e-01 1.300497723687205412e-02 1.153905025947197016e+00 -1.495260202046658327e+00 -2.238306736022213361e-01 -1.495260202046658327e+00 -8.107510035715010943e-01
-9.766977839448367504e+00 -1.292342525002241616e-01 -1.017370565027928775e+00 -1.292342525002241616e-01 -6.698680943198479731e+00 -5.797798254079157276e-01 -1.017370565027928775e+00 -5.797798254079157276e-01 -1.030826057181682387e+01
-1.416092897798962902e+01 -3.294992945313726662e-01 -1.907655684110331373e+00 -3.294992945313726662e-01 -1.322511553215867153e+01 2.072709067813630346e-01 -1.907655684110331373e+00 2.072709067813630346e-01 -2.046273616721032695e+01
-1.209667415287347048e+01 -1.119027424084981570e+00 -3.312703970523181773e+00 -1.119027424084981570e+00 -1.049207096926266658e+01 -6.669384507584938948e-01 -3.312703970523181773e+00 -6.669384507584938948e-01 -1.770605129126317934e+01
-8.960945920135067411e+00 -2.127805389125089874e+00 -4.470741855315608859e+00 -2.127805389125089874e+00 -7.013176360658685660e+00 -1.436304417319697269e+00 -4.470741855315608859e+00 -1.436304417319697269e+00 -1.455438622625187683e+01
-4.502446769419693240e+00 -2.056469312475515565e+00 -4.041698485629367177e+00 -2.056469312475515565e+00 7.093698336319460562e-01 -1.528602651350952302e+00 -4.041698485629367177e+00 -1.528602651350952302e+00 -1.320047677891135152e+01
-8.586505710474278130e-01 -1.708893774915937858e+00 -1.344133718973233194e+00 -1.708893774915937858e+00 2.791822557171228958e+00 -1.348315089310565762e+00 -1.344133718973233194e+00 -1.348315089310565762e+00 -9.073661264022048201e+00
1.864124749879436747e-03 -1.941737537585695117e+00 8.599331976929813770e-01 -1.941737537585695117e+00 6.765201860388109445e+00 -1.092436635862946481e+00 8.599331976929813770e-01 -1.092436635862946481e+00 -1.091079490132825391e+01
3.673568214481269134e+00 -2.853513828597328494e+00 1.775317265617211815e+00 -2.853513828597328494e+00 4.068433218114793526e+00 -2.143641462182807267e+00 1.775317265617211815e+00 -2.143641462182807267e+00 -1.993444457782074153e+01
7.778432272984396434e+00 -3.665215912599312897e+00 2.138793586797891333e+00 -3.665215912599312897e+00 2.824248884876047416e+00 -4.605762019224536097e+00 2.138793586797891333e+00 -4.605762019224536097e+00 -1.823960928018271943e+01
1.325138824657772929e+01 -3.287320990957462552e+00 8.650568628968979823e-01 -3.287320990957462552e+00 4.804481063026414311e+00 -4.926173376802948312e+00 8.650568628968979823e-01 -4.926173376802948312e+00 -1.046519029406670498e+01
1.083637751730472409e+01 -2.918129016436412648e+00 -8.889758124598707845e-01 -2.918129016436412648e+00 7.264543432681485058e+00 -2.564053010904564278e+00 -8.889758124598707845e-01 -2.564053010904564278e+00 -7.292162388299691322e+00
7.237218373357969803e+00 -3.545905230654291529e+00 -4.061250937349922957e-02 -3.545905230654291529e+00 1.458041129604731267e+01 -1.401446834298719191e+00 -4.061250937349922957e-02 -1.401446834298719191e+00 -9.308072340629024666e+00
6.156726576504982340e+00 -2.451769845063485498e+00 9.947327363460009009e-01 -2.451769845063485498e+00 8.311734062955544289e+00 -4.050350980040517079e+00 9.947327363460009009e-01 -4.050350980040517079e+00 -1.072618801428176738e+01
9.647999266724989198e+00 -7.049876868929476625e-01 3.165067393893662429e-01 -7.049876868929476625e-01 7.375181784574836641e+00 -3.099405325261832100e+00 3.165067393893662429e-01 -3.099405325261832100e+00 -7.037512684580730316e+00
8.959242183768418855e+00 -1.757636416337858165e+00 -1.288034823833445808e+00 -1.757636416337858165e+00 -3.812397849773484282e+00 1.217069468108203489e+00 -1.288034823833445808e+00 1.217069468108203489e+00 4.492108109402210836e+00
9.280806794900184342e-02 -1.442271799147272660e+00 -2.215914044276088291e+00 -1.442271799147272660e+00 -6.332793641037842036e+00 -1.997541237409757864e+00 -2.215914044276088291e+00 -1.997541237409757864e+00 1.417394390200085041e+01
-1.009761487962471671e+00 2.478443471088077714e-03 -2.378638000984266476e+00 2.478443471088077714e-03 -1.123874740197655164e+01 -2.735595338728891157e+00 -2.378638000984266476e+00 -2.735595338728891157e+00 4.941297623891688917e-01
8.721691671384677491e+00 -2.088439676071904838e+00 3.253223991515893365e-01 -2.088439676071904838e+00 -4.654328304147351325e+00 -2.774425665490292681e-01 3.253223991515893365e-01 -2.774425665490292681e-01 -5.460832569661941527e+00
1.473660912266937073e+00 -2.729163537702948172e+00 1.873652595440110202e+00 -2.729163537702948172e+00 2.261067025045746970e+00 1.612297513116836001e+00 1.873652595440110202e+00 1.612297513116836001e+00 2.053648437828638595e+00
-8.566387438146010780e+00 -7.649507200882289526e-01 -4.334997900119688552e+00 -7.649507200882289526e-01 -1.167276757975031742e+01 1.289267550233212711e+00 -4.334997900119688552e+00 1.289267550233212711e+00 -1.474114644967039744e+01
-1.929825911016622797e+01 2.405205782783273349e+00 -1.094769316464190512e+00 2.405205782783273349e+00 -1.908000719332324024e+01 -9.244007944054459802e-01 -1.094769316464190512e+00 -9.244007944054459802e-01 -1.781749494111514309e+01
-1.877183935979554974e+01 1.223751517372903885e+00 5.729874290078216248e+00 1.223751517372903885e+00 -8.483232002798153815e+00 -1.121803991286123070e+00 5.729874290078216248e+00 -1.121803991286123070e+00 -2.587100626767992395e+01
-1.258408157000275551e+01 -1.832546651333386123e+00 5.570134831577798984e+00 -1.832546651333386123e+00 9.276935366076587641e+00 1.275573886796723677e+00 5.570134831577798984e+00 1.275573886796723677e+00 -1.511136728049805100e+01
-1.058947395560663196e+01 -4.825308605391391281e-01 4.325976339220406253e+00 -4.825308605391391281e-01 2.866179588895612973e+00 -6.382255110889689664e-01 4.325976339220406253e+00 -6.382255110889689664e-01 -2.032452251088174933e+01
-7.771007777467444200e+00 -3.918166932209313225e-01 3.603178085031467415e+00 -3.918166932209313225e-01 -1.654471121742068362e+01 -2.563160215426943278e+00 3.603178085031467415e+00 -2.563160215426943278e+00 -3.033506928550585258e+01
-1.096119359277425609e+01 -3.652963988629324699e-01 1.778434844526724401e+00 -3.652963988629324699e-01 -2.164553423787080888e+01 -3.058625219666996742e+00 1.778434844526724401e+00 -3.058625219666996742e+00 -2.949269232695211684e+01
-1.486746961373966514e+01 -2.027872761001244528e-01 7.442294717963142681e-01 -2.027872761001244528e-01 -2.179437809918971070e+01 -3.436665414582223299e+00 7.442294717963142681e-01 -3.436665414582223299e+00 -2.426445950804969343e+01
-1.736490891792696090e+01 2.467627722270782364e-01 5.020964419846319915e-01 2.467627722270782364e-01 -1.664106724396339487e+01 -1.246926063210590074e+00 5.020964419846319915e-01 -1.246926063210590074e+00 -1.225133151338444115e+01
-1.834429759710717889e+01 6.167814723200802929e-01 1.186296922765622375e+00 6.167814723200802929e-01 -1.731719345619231021e+01 6.979714724572689821e-01 1.186296922765622375e+00 6.979714724572689821e-01 -1.108936121267248964e+01
-1.565209148092868752e+01 1.072799615454784083e+00 6.531124500759024620e-01 1.072799615454784083e+00 -1.598850453125504600e+01 -2.683483386747244626e-01 6.531124500759024620e-01 -2.683483386747244626e-01 -1.550391890999516065e+01
-1.562224766598935766e+01 1.003607069217925085e+00 3.283685005786204369e-01 1.003607069217925085e+00 -1.206613804295900927e+01 -1.411643054195892422e+00 3.283685005786204369e-01 -1.411643054195892422e+00 -1.980158096079615504e+01
-6.726179401468370678e+00 8.042239412355629835e-02 -4.104190163771271327e-01 8.042239412355629835e-02 -2.203207248329588364e+00 -1.430771107041472812e+00 -4.104190163771271327e-01 -1.430771107041472812e+00 -1.506805293405260571e+01
5.296241098624991039e+00 -8.817073481562005544e-01 -1.352126446482600830e+00 -8.817073481562005544e-01 5.240845348731107300e+00 -9.055613226825617312e-01 -1.352126446482600830e+00 -9.055613226825617312e-01 -4.524594419115910426e+00
1.064342963482786431e+01 -6.799438079701093374e-01 -9.508329315857898256e-02 -6.799438079701093374e-01 5.851111000179380461e+00 -1.453738396658462717e-01 -9.508329315857898256e-02 -1.453738396658462717e-01 -2.661270899063834072e+00
9.845088664748869789e+00 2.302576825004511510e-02 3.550635436409411150e-01 2.302576825004511510e-02 8.537604389404732430e+00 -3.855449154217357455e-01 3.550635436409411150e-01 -3.855449154217357455e-01 -8.984785892530274154e+00
1.223131946194448716e+01 -3.429960827527286371e-01 2.308485762922879159e-01 -3.429960827527286371e-01 1.543037171645502070e+01 -1.348446514771658444e+00 2.308485762922879159e-01 -1.348446514771658444e+00 -1.070547420526769145e+01
1.569727386733800500e+01 -9.823228211195561554e-01 5.502756130310817451e-01 -9.823228211195561554e-01 2.097734565821482278e+01 -1.292251284932532496e+00 5.502756130310817451e-01 -1.292251284932532496e+00 -5.734234043062247821e+00
1.881406931299273566e+01 -8.793711105863322164e-01 6.845546728105960099e-01 -8.793711105863322164e-01 2.088910791268557432e+01 -1.183920185521471602e+00 6.845546728105960099e-01 -1.183920185521471602e+00 2.395525356337218359e-01
1.911679407491917360e+01 -6.151140117024704868e-01 7.578886221837128900e-01 -6.151140117024704868e-01 2.246965812720429057e+01 -1.058505678310593723e+00 7.578886221837128900e-01 -1.058505678310593723e+00 6.124541956245532326e+00
1.814219935263296080e+01 -7.406669361083980663e-01 9.004904582154674708e-01 -7.406669361083980663e-01 2.479282260587488551e+01 -5.332553869875933383e-01 9.004904582154674708e-01 -5.332553869875933383e-01 9.884664671879695774e+00
1.896601904004585393e+01 -1.010214448539329402e+00 5.620494277470204914e-01 -1.010214448539329402e+00 2.110272775740657281e+01 -1.526843431870885393e-01 5.620494277470204914e-01 -1.526843431870885393e-01 1.132427813760706492e+01
1.649876747900682261e+01 -9.979132379871356040e-01 4.682121400276921253e-01 -9.979132379871356040e-01 1.535610111385728516e+01 -1.699629851975527628e-01 4.682121400276921253e-01 -1.699629851975527628e-01 4.119261202614485917e+00
1.496291797878795471e+01 -7.669781319003403652e-01 2.453356576165150182e-01 -7.669781319003403652e-01 1.149627026980717659e+01 3.146230337840922320e-01 2.453356576165150182e-01 3.146230337840922320e-01 -4.634750164285457608e+00
1.338400755520802221e+01 7.174753338312747468e-03 -2.780790664473464791e-01 7.174753338312747468e-03 8.366277049873717786e+00 6.158128814664037831e-01 -2.780790664473464791e-01 6.158128814664037831e-01 -7.760274242527096078e+00
8.265949732258770055e+00 4.292712023322047821e-01 -7.052364293132157291e-01 4.292712023322047821e-01 6.485196887069067273e+00 4.990134120517413785e-01 -7.052364293132157291e-01 4.990134120517413785e-01 -7.741550370405329673e+00
5.270509035797604547e+00 -1.462522566453769157e-01 -4.508380463498842250e-01 -1.462522566453769157e-01 4.794963444587636126e+00 7.741984605650232831e-01 -4.508380463498842250e-01 7.741984605650232831e-01 -6.330991398272761472e+00
4.585017149600849606e+00 -4.714096330650878186e-01 -2.171838632852600703e-01 -4.714096330650878186e-01 2.623231568141090042e-01 8.913025607787182780e-01 -2.171838632852600703e-01 8.913025607787182780e-01 -6.163383977526322610e+00
3.365183413943664714e+00 -2.806714113009246003e-01 -3.370162633146698283e-01 -2.806714113009246003e-01 -6.081417511996489722e+00 6.223550152363519494e-01 -3.370162633146698283e-01 6.223550152363519494e-01 -1.152402614495046151e+01
-1.829006463216767298e+00 -2.308445276968489890e-01 -5.516435624135559435e-01 -2.308445276968489890e-01 -6.695888315125613666e+00 4.151506480247477704e-01 -5.516435624135559435e-01 4.151506480247477704e-01 -1.068010571854344981e+01
-7.773317628371471777e+00 -1.814301638829569074e-01 -5.002759848227859019e-01 -1.814301638829569074e-01 -4.009931558911636884e+00 5.264456081971886914e-02 -5.002759848227859019e-01 5.264456081971886914e-02 -5.400835342707920539e+00
-1.167345878468579379e+01 1.102491912309949418e-01 -8.469423340065412864e-01 1.102491912309949418e-01 -4.497155455604024965e+00 -1.418572700352764837e+00 -8.469423340065412864e-01 -1.418572700352764837e+00 -8.309881215287566292e+00
-1.432094814410002037e+01 8.540519954439089456e-02 -1.311374221124295580e+00 8.540519954439089456e-02 -6.465671486336493246e+00 -2.161515154792779114e+00 -1.311374221124295580e+00 -2.161515154792779114e+00 -6.919159301206187607e+00
-1.525738487731431015e+01 6.440612055253423784e-02 -1.353457446744987580e+00 6.440612055253423784e-02 -7.860712906076105178e+00 -1.365308958156181030e+00 -1.353457446744987580e+00 -1.365308958156181030e+00 -5.907665379745665746e+00
-1.524266280498708781e+01 3.944560490356260885e-01 -5.450515171775930506e-02 3.944560490356260885e-01 -8.500751668738841360e+00 -3.820151467916238497e-01 -5.450515171775930506e-02 -3.820151467916238497e-01 -1.125328543970455186e+01
-1.414068998713601033e+01 9.438311995282451516e-02 1.124639071364298415e+00 9.438311995282451516e-02 -8.491163115312224008e+00 3.655756986209531267e-01 1.124639071364298415e+00 3.655756986209531267e-01 -1.381997466749903758e+01
-8.780279679516471703e+00 -1.059876636873623157e-01 2.289976207945009445e+00 -1.059876636873623157e-01 -8.225736686262136388e+00 5.354764110431825541e-01 2.289976207945009445e+00 5.354764110431825541e-01 -9.933558101059585255e+00
1.817820099458599570e+00 -8.511173356441231741e-02 2.174106427700645661e+00 -8.511173356441231741e-02 -4.484885595243172318e+00 -8.688549229039639332e-01 2.174106427700645661e+00 -8.688549229039639332e-01 6.796513396026605536e-01
1.057141369361480976e+01 -1.288442002950255516e-01 1.238208160912924044e-01 -1.288442002950255516e-01 -1.718088184434904298e+00 -1.190807001071814808e+00 1.238208160912924044e-01 -1.190807001071814808e+00 1.498225108979216458e+01
3.220542823301243196e+00 8.633735926354308976e-01 3.934158607137167030e-01 8.633735926354308976e-01 -3.588664493387205834e+00 6.684094812897146687e-01 3.934158607137167030e-01 6.684094812897146687e-01 8.253423394408953229e+00
-7.012885483189803537e+00 1.274753787488463797e+00 1.084113511609473557e+00 1.274753787488463797e+00 -6.653157252877366368e+00 1.438092505671218602e+00 1.084113511609473557e+00 1.438092505671218602e+00 -1.907081606707967003e+00
-9.271299080145107396e+00 6.834388665679155261e-01 6.478527846165305082e-01 6.834388665679155261e-01 -6.719540259818680639e+00 2.111271339760711074e-01 6.478527846165305082e-01 2.111271339760711074e-01 -2.963215774971274641e+00
-4.374612083159213682e+00 1.487118703093667955e-02 -1.181670328532224090e+00 1.487118703093667955e-02 -6.107768745104808161e+00 7.999751189274236784e-01 -1.181670328532224090e+00 7.999751189274236784e-01 2.288822144827620253e+00
-9.082128875762643716e+00 5.373601628873943270e-02 -3.798692490640398933e+00 5.373601628873943270e-02 -9.139947615918027068e+00 1.714420300170324651e+00 -3.798692490640398933e+00 1.714420300170324651e+00 -5.725978355727077584e+00
-1.450168592599096051e+01 5.180965023949695158e-01 -4.742566456983975165e+00 5.180965023949695158e-01 -1.125310095163373347e+01 1.582167153719455488e+00 -4.742566456983975165e+00 1.582167153719455488e+00 -1.577512859987448834e+01
-1.577028199127545882e+01 1.049483828095877369e+00 -3.982284886169673133e+00 1.049483828095877369e+00 -6.346695931483787412e+00 -4.078742144725994168e-01 -3.982284886169673133e+00 -4.078742144725994168e-01 -1.383043120728591546e+01
-1.950970158517186093e+01 4.444350800683306568e-01 -3.420758686850083663e+00 4.444350800683306568e-01 -5.625049891256626466e+00 8.076540549268196312e-02 -3.420758686850083663e+00 8.076540549268196312e-02 -5.657884881996172233e+00
-1.607543150311164126e+01 -1.257186330755434289e+00 -2.932970116469943100e+00 -1.257186330755434289e+00 -2.552500829538367100e+00 5.467813201159508335e-02 -2.932970116469943100e+00 5.467813201159508335e-02 -1.991563506157548069e+00
-8.380542028269648114e+00 -3.061901595150458011e+00 -2.895734767512160968e+00 -3.061901595150458011e+00 9.339849123350079108e-01 5.510235589735397177e-01 -2.895734767512160968e+00 5.510235589735397177e-01 -7.630334279566915789e+00
-3.450896576015213935e+00 -1.889410693331198043e+00 -2.258785674433287038e+00 -1.889410693331198043e+00 8.922334452499050883e+00 1.853150291600194066e+00 -2.258785674433287038e+00 1.853150291600194066e+00 -1.353543745790410391e+01
-7.449344508338769100e-02 8.131986821141494737e-01 -1.524149364412893171e+00 8.131986821141494737e-01 9.844187306989306663e+00 1.595253838526307977e+00 -1.524149364412893171e+00 1.595253838526307977e+00 -1.557442101908628018e+01
1.577546605454489326e+00 1.124651508283880386e+00 -1.776693495356756136e+00 1.124651508283880386e+00 7.609303078804030562e+00 9.671224524937290790e-01 -1.776693495356756136e+00 9.671224524937290790e-01 -1.141113613195458321e+01
4.229487466583071509e+00 -2.438047667922179085e-01 -1.832997722554559061e+00 -2.438047667922179085e-01 2.652919112391451950e+00 1.871701860669281459e+00 -1.832997722554559061e+00 1.871701860669281459e+00 -1.213817866123183009e+01
6.006730239847793307e+00 -6.260443442907419609e-01 -4.336138786737846473e-01 -6.260443442907419609e-01 -4.191730119962843837e+00 2.467569211101372950e+00 -4.336138786737846473e-01 2.467569211101372950e+00 -1.526612856745108360e+01
-2.325068177611791409e+00 1.984729136450777087e+00 -1.120461494865227836e+00 1.984729136450777087e+00 -5.635018992753385803e+00 9.914883687917850352e-01 -1.120461494865227836e+00 9.914883687917850352e-01 -1.843166456295143973e+01
-4.493833139838158353e+00 1.636172296994852449e+00 -4.752432306271607843e-01 1.636172296994852449e+00 -2.498240992940258032e+00 9.439150143285250927e-01 -4.752432306271607843e-01 9.439150143285250927e-01 -1.579164768063401247e+01
-2.225861498556083173e+00 -1.129023565694730946e+00 8.539471895746179042e-01 -1.129023565694730946e+00 2.048103438750553895e+00 -8.381527220179568749e-02 8.539471895746179042e-01 -8.381527220179568749e-02 -1.186592819495561990e+01
-3.385121514713168578e-01 -1.248500065239192214e+00 4.475811141250663622e-02 -1.248500065239192214e+00 6.076193936725112543e+00 -9.005240928917545018e-01 4.475811141250663622e-02 -9.005240928917545018e-01 -1.249932059053950617e+01
-2.723339673032605379e+00 -8.513575745981769582e-01 -8.603429926684685869e-01 -8.513575745981769582e-01 1.217704472419195216e+00 1.295702673773086122e+00 -8.603429926684685869e-01 1.295702673773086122e+00 -1.875549519169837254e+01
1.493149918330634041e-01 4.340704527424083525e-01 -2.221046270731000583e+00 4.340704527424083525e-01 -4.397156430439954633e-01 3.121935027797082096e+00 -2.221046270731000583e+00 3.121935027797082096e+00 -1.886354381371917555e+01
8.459407195793081868e+00 -1.384545455054960739e-01 -2.576559368937422434e+00 -1.384545455054960739e-01 2.069167369783214028e+00 3.723510391391109398e+00 -2.576559368937422434e+00 3.723510391391109398e+00 -1.648182435506025101e+01
9.591503863509611705e+00 -1.127284991662975466e+00 -2.579143090659945070e+00 -1.127284991662975466e+00 4.048401148770579105e+00 4.755098754682169471e+00 -2.579143090659945070e+00 4.755098754682169471e+00 -1.914427478874402055e+01
-8.807007248689824319e-01 -1.298750154753529840e+00 -2.584641541427664890e+00 -1.298750154753529840e+00 1.576384119709319354e+00 4.179442271517967988e+00 -2.584641541427664890e+00 4.179442271517967988e+00 -2.092383337673675570e+01
1.526432854722951371e-01 -2.168365117294212219e+00 -3.528988027743099387e+00 -2.168365117294212219e+00 5.558672402634952547e+00 2.840389377582966723e+00 -3.528988027743099387e+00 2.840389377582966723e+00 -1.575283781579493514e+01
6.887539850157795129e+00 -1.736579166961909948e+00 -3.835133590956178562e+00 -1.736579166961909948e+00 8.829755027245784760e+00 1.760352146621916303e+00 -3.835133590956178562e+00 1.760352146621916303e+00 -4.333248378628102415e+00
6.656599617090209975e+00 -4.420848176949673802e-01 -3.211982390792448072e+00 -4.420848176949673802e-01 5.994007878010958024e+00 4.093567747407080848e-01 -3.211982390792448072e+00 4.093567747407080848e-01 2.459607024001380093e+00
2.489647565788086325e+00 8.653863688460933234e-01 -2.166424794238263729e+00 8.653863688460933234e-01 -1.233049458463179926e+00 -1.017056976984773708e+00 -2.166424794238263729e+00 -1.017056976984773708e+00 -3.412116931914432882e-01
-5.605986503355091521e-01 1.263754594712928059e+00 -9.161976017487880597e-01 1.263754594712928059e+00 -3.973288216277540474e+00 -7.208153182949986748e-01 -9.161976017487880597e-01 -7.208153182949986748e-01 -3.233965445569920050e+00
1.605818014252988535e+00 7.191212543354273956e-01 9.965958990019937458e-01 7.191212543354273956e-01 -1.302584759844764628e+00 4.738147456502872501e-01 9.965958990019937458e-01 4.738147456502872501e-01 -6.415884433612876414e+00
7.345487291322907453e+00 -8.545789826612645301e-01 8.739928899601363543e-01 -8.545789826612645301e-01 -3.649578292340878161e-01 6.213403039959068952e-01 8.739928899601363543e-01 6.213403039959068952e-01 -5.620120635830651246e+00
5.727571423637420445e+00 -2.154950954917824291e+00 9.799164786034787467e-01 -2.154950954917824291e+00 3.578408284459709821e-01 7.361887468503751364e-02 9.799164786034787467e-01 7.361887468503751364e-02 -8.518478671051207485e+00
-1.203274300648043305e+00 -1.359747202602382243e+00 6.452240907782150758e-01 -1.359747202602382243e+00 -2.498070197133830828e+00 -3.190114460546621122e-02 6.452240907782150758e-01 -3.190114460546621122e-02 -1.360047084576246768e+01
-4.776869456370967271e+00 1.359279945341419493e-01 -4.540051002797120816e-01 1.359279945341419493e-01 -3.316203571206457923e+00 -2.357267887094048608e-01 -4.540051002797120816e-01 -2.357267887094048608e-01 -1.330176829990643839e+01
1.630664391852679473e-01 9.679932464926770397e-01 -1.240336186927175843e+00 9.679932464926770397e-01 -1.000225825215755870e+00 -5.601461199226610566e-01 -1.240336186927175843e+00 -5.601461199226610566e-01 -6.264147387587862603e+00
2.918532333825528902e+00 1.224920929567746786e+00 -1.886272150757883903e+00 1.224920929567746786e+00 3.278078485300249811e-01 -1.545818999634015256e+00 -1.886272150757883903e+00 -1.545818999634015256e+00 -8.868109080007200440e-01
-2.366270315438321781e+00 1.093798818494023273e+00 -2.713664802799980791e+00 1.093798818494023273e+00 1.499990654167769222e+00 -3.395470290460790963e+00 -2.713664802799980791e+00 -3.395470290460790963e+00 -3.360169252408815144e+00
-5.454052402558975388e+00 4.394098778998222765e-01 -2.158985562494512234e+00 4.394098778998222765e-01 -1.199224266205411560e+00 -3.349325843240612333e+00 -2.158985562494512234e+00 -3.349325843240612333e+00 -5.339324570781738721e+00
-2.970935412024227951e+00 -3.889832466727104476e-01 -8.884339325548802346e-01 -3.889832466727104476e-01 -5.946799137730360840e-01 -2.158549542540824095e+00 -8.884339325548802346e-01 -2.158549542540824095e+00 -1.471293087928824406e+00
1.769366652766418246e+00 -4.816108149192204757e-01 7.179550329091695104e-01 -4.816108149192204757e-01 -3.764788636234900343e-01 -8.384029638005975338e-01 7.179550329091695104e-01 -8.384029638005975338e-01 3.417492100088797002e+00
3.051840361454766004e+00 1.360742049181575264e-01 2.093914133078384143e+00 1.360742049181575264e-01 -3.829044004771588572e+00 5.990258990262706806e-01 2.093914133078384143e+00 5.990258990262706806e-01 3.081925308454357193e+00
2.460418051235769177e+00 7.434844473337449688e-01 4.101513041066533027e+00 7.434844473337449688e-01 -6.459320112587648488e+00 7.884214891691170290e-01 4.101513041066533027e+00 7.884214891691170290e-01 -1.943241059228234091e+00
1.385954000844940470e+00 1.003979932198159286e+00 5.208446810026004847e+00 1.003979932198159286e+00 -6.816702452936798551e+00 8.693441229617008270e-01 5.208446810026004847e+00 8.693441229617008270e-01 -4.408731130372665952e+00
1.954186933942850590e+00 7.092910630685193007e-01 4.321982607025306677e+00 7.092910630685193007e-01 -4.250505116004429595e+00 1.489582420199896395e+00 4.321982607025306677e+00 1.489582420199896395e+00 -4.327835625863129643e+00
2.785006704719037440e-01 5.544339406039494600e-01 3.793206913921057577e+00 5.544339406039494600e-01 -3.432268160100302890e+00 2.116737763403355288e+00 3.793206913921057577e+00 2.116737763403355288e+00 -6.805033393666513497e+00
-6.825075896131228781e+00 2.354665049174049229e-01 3.949910830220792146e+00 2.354665049174049229e-01 -2.568046018697098809e+00 3.011898474395807934e+00 3.949910830220792146e+00 3.011898474395807934e+00 -8.489698322217716253e+00
-9.812913394944542844e+00 -1.198703237649893227e-01 2.417503291096600559e+00 -1.198703237649893227e-01 -2.027216734259376096e+00 4.190429687970997463e+00 2.417503291096600559e+00 4.190429687970997463e+00 -7.816910177760106215e+00
-6.643486607908213770e+00 -5.858181303701259779e-01 2.680164540333505041e-01 -5.858181303701259779e-01 -1.100141279640066694e+00 3.961098397834962981e+00 2.680164540333505041e-01 3.961098397834962981e+00 -5.476578941807843520e-02
-4.743924799867837550e+00 -7.434815740679550089e-01 -7.072979393670810744e-01 -7.434815740679550089e-01 -7.244211195674893355e-01 2.389904980134181400e+00 -7.072979393670810744e-01 2.389904980134181400e+00 2.099790976607568194e+00
-5.444450881751786930e+00 -1.076367210909287886e+00 -8.267805558965565238e-01 -1.076367210909287886e+00 -3.637088951947067716e+00 1.766673198449949744e+00 -8.267805558965565238e-01 1.766673198449949744e+00 -5.898198858170549563e+00
-3.051050427483844363e+00 -4.954021133812548383e-01 -1.388594554214969357e+00 -4.954021133812548383e-01 -7.112312819454704282e+00 1.692916961623869510e+00 -1.388594554214969357e+00 1.692916961623869510e+00 -1.322968336431236658e+01
1.677090466622933818e+00 1.064045601596523616e+00 -2.257559348601374971e+00 1.064045601596523616e+00 -7.668264606369779024e+00 1.484333036991787313e+00 -2.257559348601374971e+00 1.484333036991787313e+00 -1.418079807851482954e+01
3.574144931389828361e+00 5.052031027491761250e-01 -1.912360176526060718e+00 5.052031027491761250e-01 -5.509248941851726755e+00 1.475698322725885303e+00 -1.912360176526060718e+00 1.475698322725885303e+00 -8.310971198037881535e+00
6.741833393863490898e+00 -8.063210416933844771e-01 -7.433447391059982978e-01 -8.063210416933844771e-01 -2.940879348662661652e+00 1.564853290699442345e+00 -7.433447391059982978e-01 1.564853290699442345e+00 -2.141359388504812111e-01
6.796741951748983546e+00 -1.826911282498272726e+00 5.445150488834975544e-01 -1.826911282498272726e+00 -1.806957333531053367e+00 3.586162859803543879e-01 5.445150488834975544e-01 3.586162859803543879e-01 3.874560972074708065e+00
4.531135026096108298e+00 -2.440133861979694618e+00 1.266484553642416300e+00 -2.440133861979694618e+00 1.481300096037092340e+00 -1.146476715993522300e+00 1.266484553642416300e+00 -1.146476715993522300e+00 1.916695146052185050e+00
3.661988787061778439e+00 -2.265152093261043831e+00 4.824171230954841794e-01 -2.265152093261043831e+00 5.589248116048977977e+00 -2.605272381269826631e+00 4.824171230954841794e-01 -2.605272381269826631e+00 -2.627125179923099463e+00
6.529039527869396231e+00 -1.353381763542885974e+00 -3.517341376314310764e-01 -1.353381763542885974e+00 8.946385498889711130e+00 -3.636675805859615362e+00 -3.517341376314310764e-01 -3.636675805859615362e+00 -4.997132454727982953e+00
3.544819061117861381e+00 -7.778591670873278296e-01 6.570315772091435136e-01 -7.778591670873278296e-01 4.944254198164137470e+00 -1.996249999118874907e+00 6.570315772091435136e-01 -1.996249999118874907e+00 -7.044098742547258318e+00
-1.221632512143793647e+00 4.435958042422286432e-03 9.248825405249657683e-01 4.435958042422286432e-03 3.945995371808231234e+00 1.585690059828130050e+00 9.248825405249657683e-01 1.585690059828130050e+00 -2.481402022519431316e+00
-4.118451379908292687e+00 1.135880734992433361e+00 -7.191224928201412903e-01 1.135880734992433361e+00 7.785329913396792811e+00 2.373128594687106130e+00 -7.191224928201412903e-01 2.373128594687106130e+00 -1.403990791823785278e+00
-2.686124504343136987e+00 1.262680606024872754e+00 -7.270830481910699472e-01 1.262680606024872754e+00 8.111724655919173799e+00 3.152867966799355326e+00 -7.270830481910699472e-01 3.152867966799355326e+00 -1.198870369743243458e+01