7.737478895268454337e+00 0.000000000000000000e+00 0.000000000000000000e+00 0.000000000000000000e+00 7.737478895268454337e+00 0.000000000000000000e+00 0.000000000000000000e+00 0.000000000000000000e+00 8.457570653764447499e+00
7.739634416192626709e+00 0.000000000000000000e+00 0.000000000000000000e+00 0.000000000000000000e+00 7.739634416192626709e+00 0.000000000000000000e+00 0.000000000000000000e+00 0.000000000000000000e+00 8.459926779158880805e+00
7.744631560867557774e+00 0.000000000000000000e+00 0.000000000000000000e+00 0.000000000000000000e+00 7.744631560867557774e+00 0.000000000000000000e+00 0.000000000000000000e+00 0.000000000000000000e+00 8.465388985224777230e+00
7.751668467495004045e+00 0.000000000000000000e+00 0.000000000000000000e+00 0.000000000000000000e+00 7.751668467495004045e+00 0.000000000000000000e+00 0.000000000000000000e+00 0.000000000000000000e+00 8.473080784554463563e+00
7.760600412406039261e+00 0.000000000000000000e+00 0.000000000000000000e+00 0.000000000000000000e+00 7.760600412406039261e+00 0.000000000000000000e+00 0.000000000000000000e+00 0.000000000000000000e+00 8.482843984711543328e+00
7.770761643315934109e+00 0.000000000000000000e+00 0.000000000000000000e+00 0.000000000000000000e+00 7.770761643315934109e+00 0.000000000000000000e+00 0.000000000000000000e+00 0.000000000000000000e+00 8.493950874890938252e+00
7.779077672984363367e+00 0.000000000000000000e+00 0.000000000000000000e+00 0.000000000000000000e+00 7.779077672984363367e+00 0.000000000000000000e+00 0.000000000000000000e+00 0.000000000000000000e+00 8.503040839390365591e+00
7.781937336564278773e+00 0.000000000000000000e+00 0.000000000000000000e+00 0.000000000000000000e+00 7.781937336564278773e+00 0.000000000000000000e+00 0.000000000000000000e+00 0.000000000000000000e+00 8.506166638775324529e+00
7.778442196162359323e+00 0.000000000000000000e+00 0.000000000000000000e+00 0.000000000000000000e+00 7.778442196162359323e+00 0.000000000000000000e+00 0.000000000000000000e+00 0.000000000000000000e+00 8.502346221648796387e+00
7.771382787207443243e+00 0.000000000000000000e+00 0.000000000000000000e+00 0.000000000000000000e+00 7.771382787207443243e+00 0.000000000000000000e+00 0.000000000000000000e+00 0.000000000000000000e+00 8.494629825800693368e+00
7.763357900699105585e+00 0.000000000000000000e+00 0.000000000000000000e+00 0.000000000000000000e+00 7.763357900699105585e+00 0.000000000000000000e+00 0.000000000000000000e+00 0.000000000000000000e+00 8.485858099822388922e+00
7.753089674722106750e+00 0.000000000000000000e+00 0.000000000000000000e+00 0.000000000000000000e+00 7.753089674722106750e+00 0.000000000000000000e+00 0.000000000000000000e+00 0.000000000000000000e+00 8.474634257036209206e+00
7.740113635401097092e+00 0.000000000000000000e+00 0.000000000000000000e+00 0.000000000000000000e+00 7.740113635401097092e+00 0.000000000000000000e+00 0.000000000000000000e+00 0.000000000000000000e+00 8.460450597106625281e+00
7.727767215910804843e+00 0.000000000000000000e+00 0.000000000000000000e+00 0.000000000000000000e+00 7.727767215910804843e+00 0.000000000000000000e+00 0.000000000000000000e+00 0.000000000000000000e+00 8.446955152844466852e+00
7.719931837759601123e+00 0.000000000000000000e+00 0.000000000000000000e+00 0.000000000000000000e+00 7.719931837759601123e+00 0.000000000000000000e+00 0.000000000000000000e+00 0.000000000000000000e+00 8.438390571898775505e+00
7.718988235599259617e+00 0.000000000000000000e+00 0.000000000000000000e+00 0.000000000000000000e+00 7.718988235599259617e+00 0.000000000000000000e+00 0.000000000000000000e+00 0.000000000000000000e+00 8.437359153002931933e+00
7.724332274322363467e+00 0.000000000000000000e+00 0.000000000000000000e+00 0.000000000000000000e+00 7.724332274322363467e+00 0.000000000000000000e+00 0.000000000000000000e+00 0.000000000000000000e+00 8.443200536959166058e+00
7.733053939835829560e+00 0.000000000000000000e+00 0.000000000000000000e+00 0.000000000000000000e+00 7.733053939835829560e+00 0.000000000000000000e+00 0.000000000000000000e+00 0.000000000000000000e+00 8.452733887975327320e+00
7.743720243567373984e+00 0.000000000000000000e+00 0.000000000000000000e+00 0.000000000000000000e+00 7.743720243567373984e+00 0.000000000000000000e+00 0.000000000000000000e+00 0.000000000000000000e+00 8.464392855792798542e+00
7.757235570430082383e+00 0.000000000000000000e+00 0.000000000000000000e+00 0.000000000000000000e+00 7.757235570430082383e+00 0.000000000000000000e+00 0.000000000000000000e+00 0.000000000000000000e+00 8.479165992288175246e+00
7.773173828314670075e+00 0.000000000000000000e+00 0.000000000000000000e+00 0.000000000000000000e+00 7.773173828314670075e+00 0.000000000000000000e+00 0.000000000000000000e+00 0.000000000000000000e+00 8.496587550910438935e+00
7.787881152963881171e+00 0.000000000000000000e+00 0.000000000000000000e+00 0.000000000000000000e+00 7.787881152963881171e+00 0.000000000000000000e+00 0.000000000000000000e+00 0.000000000000000000e+00 8.512663618971748392e+00
7.796895283277832434e+00 0.000000000000000000e+00 0.000000000000000000e+00 0.000000000000000000e+00 7.796895283277832434e+00 0.000000000000000000e+00 0.000000000000000000e+00 0.000000000000000000e+00 8.522516653149718735e+00
7.800172312531265639e+00 0.000000000000000000e+00 0.000000000000000000e+00 0.000000000000000000e+00 7.800172312531265639e+00 0.000000000000000000e+00 0.000000000000000000e+00 0.000000000000000000e+00 8.526098660522604789e+00
7.800175380689604587e+00 0.000000000000000000e+00 0.000000000000000000e+00 0.000000000000000000e+00 7.800175380689604587e+00 0.000000000000000000e+00 0.000000000000000000e+00 0.000000000000000000e+00 8.526102014221299541e+00
7.795541867413501969e+00 0.000000000000000000e+00 0.000000000000000000e+00 0.000000000000000000e+00 7.795541867413501969e+00 0.000000000000000000e+00 0.000000000000000000e+00 0.000000000000000000e+00 8.521037281064428370e+00
7.783949744335252774e+00 0.000000000000000000e+00 0.000000000000000000e+00 0.000000000000000000e+00 7.783949744335252774e+00 0.000000000000000000e+00 0.000000000000000000e+00 0.000000000000000000e+00 8.508366332130227860e+00
7.769653410779254088e+00 0.000000000000000000e+00 0.000000000000000000e+00 0.000000000000000000e+00 7.769653410779254088e+00 0.000000000000000000e+00 0.000000000000000000e+00 0.000000000000000000e+00 8.492739504221953339e+00
7.759717823369487455e+00 0.000000000000000000e+00 0.000000000000000000e+00 0.000000000000000000e+00 7.759717823369487455e+00 0.000000000000000000e+00 0.000000000000000000e+00 0.000000000000000000e+00 8.481879257151806684e+00
7.756151657178413927e+00 0.000000000000000000e+00 0.000000000000000000e+00 0.000000000000000000e+00 7.756151657178413927e+00 0.000000000000000000e+00 0.000000000000000000e+00 0.000000000000000000e+00 8.477981204190172093e+00
7.756634726984718675e+00 0.000000000000000000e+00 0.000000000000000000e+00 0.000000000000000000e+00 7.756634726984718675e+00 0.000000000000000000e+00 0.000000000000000000e+00 0.000000000000000000e+00 8.478509231092690612e+00
7.760226000020269410e+00 0.000000000000000000e+00 0.000000000000000000e+00 0.000000000000000000e+00 7.760226000020269410e+00 0.000000000000000000e+00 0.000000000000000000e+00 0.000000000000000000e+00 8.482434727477352610e+00
7.768096068503785645e+00 0.000000000000000000e+00 0.000000000000000000e+00 0.000000000000000000e+00 7.768096068503785645e+00 0.000000000000000000e+00 0.000000000000000000e+00 0.000000000000000000e+00 8.491037227226772899e+00
7.780451982108425923e+00 0.000000000000000000e+00 0.000000000000000000e+00 0.000000000000000000e+00 7.780451982108425923e+00 0.000000000000000000e+00 0.000000000000000000e+00 0.000000000000000000e+00 8.504543049176193747e+00
7.793240630970111660e+00 0.000000000000000000e+00 0.000000000000000000e+00 0.000000000000000000e+00 7.793240630970111660e+00 0.000000000000000000e+00 0.000000000000000000e+00 0.000000000000000000e+00 8.518521879073841063e+00
7.800696878539705281e+00 0.000000000000000000e+00 0.000000000000000000e+00 0.000000000000000000e+00 7.800696878539705281e+00 0.000000000000000000e+00 0.000000000000000000e+00 0.000000000000000000e+00 8.526672045490029106e+00
7.800711386903190103e+00 0.000000000000000000e+00 0.000000000000000000e+00 0.000000000000000000e+00 7.800711386903190103e+00 0.000000000000000000e+00 0.000000000000000000e+00 0.000000000000000000e+00 8.526687904080741731e+00
7.793461957004092611e+00 0.000000000000000000e+00 0.000000000000000000e+00 0.000000000000000000e+00 7.793461957004092611e+00 0.000000000000000000e+00 0.000000000000000000e+00 0.000000000000000000e+00 8.518763802909253613e+00
7.780142185075710870e+00 0.000000000000000000e+00 0.000000000000000000e+00 0.000000000000000000e+00 7.780142185075710870e+00 0.000000000000000000e+00 0.000000000000000000e+00 0.000000000000000000e+00 8.504204420751442228e+00
7.762188930872048864e+00 0.000000000000000000e+00 0.000000000000000000e+00 0.000000000000000000e+00 7.762188930872048864e+00 0.000000000000000000e+00 0.000000000000000000e+00 0.000000000000000000e+00 8.484580339322564058e+00
7.741701607067254187e+00 0.000000000000000000e+00 0.000000000000000000e+00 0.000000000000000000e+00 7.741701607067254187e+00 0.000000000000000000e+00 0.000000000000000000e+00 0.000000000000000000e+00 8.462186354029087809e+00
7.722985763451285735e+00 0.000000000000000000e+00 0.000000000000000000e+00 0.000000000000000000e+00 7.722985763451285735e+00 0.000000000000000000e+00 0.000000000000000000e+00 0.000000000000000000e+00 8.441728712481431529e+00
7.711106900487597393e+00 0.000000000000000000e+00 0.000000000000000000e+00 0.000000000000000000e+00 7.711106900487597393e+00 0.000000000000000000e+00 0.000000000000000000e+00 0.000000000000000000e+00 8.428744338093400401e+00
7.708418865210738602e+00 0.000000000000000000e+00 0.000000000000000000e+00 0.000000000000000000e+00 7.708418865210738602e+00 0.000000000000000000e+00 0.000000000000000000e+00 0.000000000000000000e+00 8.425806139671555783e+00
7.713380626054348710e+00 0.000000000000000000e+00 0.000000000000000000e+00 0.000000000000000000e+00 7.713380626054348710e+00 0.000000000000000000e+00 0.000000000000000000e+00 0.000000000000000000e+00 8.431229668894088647e+00
7.723239735453346633e+00 0.000000000000000000e+00 0.000000000000000000e+00 0.000000000000000000e+00 7.723239735453346633e+00 0.000000000000000000e+00 0.000000000000000000e+00 0.000000000000000000e+00 8.442006320495437421e+00
7.735620885326718543e+00 0.000000000000000000e+00 0.000000000000000000e+00 0.000000000000000000e+00 7.735620885326718543e+00 0.000000000000000000e+00 0.000000000000000000e+00 0.000000000000000000e+00 8.455539727339070666e+00
7.749347045028811110e+00 0.000000000000000000e+00 0.000000000000000000e+00 0.000000000000000000e+00 7.749347045028811110e+00 0.000000000000000000e+00 0.000000000000000000e+00 0.000000000000000000e+00 8.470543317921885418e+00
7.762096941489566859e+00 0.000000000000000000e+00 0.000000000000000000e+00 0.000000000000000000e+00 7.762096941489566859e+00 0.000000000000000000e+00 0.000000000000000000e+00 0.000000000000000000e+00 8.484479788909363052e+00
7.770031827955970805e+00 0.000000000000000000e+00 0.000000000000000000e+00 0.000000000000000000e+00 7.770031827955970805e+00 0.000000000000000000e+00 0.000000000000000000e+00 0.000000000000000000e+00 8.493153138952948211e+00
7.770801676777488787e+00 0.000000000000000000e+00 0.000000000000000000e+00 0.000000000000000000e+00 7.770801676777488787e+00 0.000000000000000000e+00 0.000000000000000000e+00 0.000000000000000000e+00 8.493994634082048023e+00
7.765170274603535816e+00 0.000000000000000000e+00 0.000000000000000000e+00 0.000000000000000000e+00 7.765170274603535816e+00 0.000000000000000000e+00 0.000000000000000000e+00 0.000000000000000000e+00 8.487839143074907611e+00
7.756166707961776652e+00 0.000000000000000000e+00 0.000000000000000000e+00 0.000000000000000000e+00 7.756166707961776652e+00 0.000000000000000000e+00 0.000000000000000000e+00 0.000000000000000000e+00 8.477997655680473699e+00
7.747050772295848375e+00 0.000000000000000000e+00 0.000000000000000000e+00 0.000000000000000000e+00 7.747050772295848375e+00 0.000000000000000000e+00 0.000000000000000000e+00 0.000000000000000000e+00 8.468033341592065000e+00
7.739610018646066791e+00 0.000000000000000000e+00 0.000000000000000000e+00 0.000000000000000000e+00 7.739610018646066791e+00 0.000000000000000000e+00 0.000000000000000000e+00 0.000000000000000000e+00 8.459900111044390769e+00
7.735157156312083337e+00 0.000000000000000000e+00 0.000000000000000000e+00 0.000000000000000000e+00 7.735157156312083337e+00 0.000000000000000000e+00 0.000000000000000000e+00 0.000000000000000000e+00 8.455032841186861603e+00
7.735313005704966827e+00 0.000000000000000000e+00 0.000000000000000000e+00 0.000000000000000000e+00 7.735313005704966827e+00 0.000000000000000000e+00 0.000000000000000000e+00 0.000000000000000000e+00 8.455203194769254083e+00
7.741694931042682803e+00 0.000000000000000000e+00 0.000000000000000000e+00 0.000000000000000000e+00 7.741694931042682803e+00 0.000000000000000000e+00 0.000000000000000000e+00 0.000000000000000000e+00 8.462179056698094115e+00
7.753962593309324802e+00 0.000000000000000000e+00 0.000000000000000000e+00 0.000000000000000000e+00 7.753962593309324802e+00 0.000000000000000000e+00 0.000000000000000000e+00 0.000000000000000000e+00 8.475588414161792983e+00
7.768188566467339129e+00 0.000000000000000000e+00 0.000000000000000000e+00 0.000000000000000000e+00 7.768188566467339129e+00 0.000000000000000000e+00 0.000000000000000000e+00 0.000000000000000000e+00 8.491138333552774142e+00
7.779874656150687962e+00 0.000000000000000000e+00 0.000000000000000000e+00 0.000000000000000000e+00 7.779874656150687962e+00 0.000000000000000000e+00 0.000000000000000000e+00 0.000000000000000000e+00 8.503911994133737551e+00
7.786148410643067841e+00 0.000000000000000000e+00 0.000000000000000000e+00 0.000000000000000000e+00 7.786148410643067841e+00 0.000000000000000000e+00 0.000000000000000000e+00 0.000000000000000000e+00 8.510769618251186941e+00
7.786930949133540558e+00 0.000000000000000000e+00 0.000000000000000000e+00 0.000000000000000000e+00 7.786930949133540558e+00 0.000000000000000000e+00 0.000000000000000000e+00 0.000000000000000000e+00 8.511624984018446582e+00
7.783292623171840674e+00 0.000000000000000000e+00 0.000000000000000000e+00 0.000000000000000000e+00 7.783292623171840674e+00 0.000000000000000000e+00 0.000000000000000000e+00 0.000000000000000000e+00 8.507648055706841461e+00
7.774937129186580087e+00 0.000000000000000000e+00 0.000000000000000000e+00 0.000000000000000000e+00 7.774937129186580087e+00 0.000000000000000000e+00 0.000000000000000000e+00 0.000000000000000000e+00 8.498514954126724419e+00
7.760960836494328774e+00 0.000000000000000000e+00 0.000000000000000000e+00 0.000000000000000000e+00 7.760960836494328774e+00 0.000000000000000000e+00 0.000000000000000000e+00 0.000000000000000000e+00 8.483237951820751022e+00
7.743423829725621488e+00 0.000000000000000000e+00 0.000000000000000000e+00 0.000000000000000000e+00 7.743423829725621488e+00 0.000000000000000000e+00 0.000000000000000000e+00 0.000000000000000000e+00 8.464068856070838365e+00
7.727672231556564242e+00 0.000000000000000000e+00 0.000000000000000000e+00 0.000000000000000000e+00 7.727672231556564242e+00 0.000000000000000000e+00 0.000000000000000000e+00 0.000000000000000000e+00 8.446851328731110442e+00
7.718318683290404714e+00 0.000000000000000000e+00 0.000000000000000000e+00 0.000000000000000000e+00 7.718318683290404714e+00 0.000000000000000000e+00 0.000000000000000000e+00 0.000000000000000000e+00 8.436627288523764534e+00
7.715058905553666690e+00 0.000000000000000000e+00 0.000000000000000000e+00 0.000000000000000000e+00 7.715058905553666690e+00 0.000000000000000000e+00 0.000000000000000000e+00 0.000000000000000000e+00 8.433064138188330006e+00
7.715182371429959218e+00 0.000000000000000000e+00 0.000000000000000000e+00 0.000000000000000000e+00 7.715182371429959218e+00 0.000000000000000000e+00 0.000000000000000000e+00 0.000000000000000000e+00 8.433199094468481150e+00
7.717540884339649132e+00 0.000000000000000000e+00 0.000000000000000000e+00 0.000000000000000000e+00 7.717540884339649132e+00 0.000000000000000000e+00 0.000000000000000000e+00 0.000000000000000000e+00 8.435777103383687248e+00
7.723362718493418377e+00 0.000000000000000000e+00 0.000000000000000000e+00 0.000000000000000000e+00 7.723362718493418377e+00 0.000000000000000000e+00 0.000000000000000000e+00 0.000000000000000000e+00 8.442140749004625633e+00
7.735737298377610927e+00 0.000000000000000000e+00 0.000000000000000000e+00 0.000000000000000000e+00 7.735737298377610927e+00 0.000000000000000000e+00 0.000000000000000000e+00 0.000000000000000000e+00 8.455666974419600024e+00
7.753822884767529011e+00 0.000000000000000000e+00 0.000000000000000000e+00 0.000000000000000000e+00 7.753822884767529011e+00 0.000000000000000000e+00 0.000000000000000000e+00 0.000000000000000000e+00 8.475435703585841196e+00
7.772581925337842534e+00 0.000000000000000000e+00 0.000000000000000000e+00 0.000000000000000000e+00 7.772581925337842534e+00 0.000000000000000000e+00 0.000000000000000000e+00 0.000000000000000000e+00 8.495940562231700355e+00
7.787053671753112916e+00 0.000000000000000000e+00 0.000000000000000000e+00 0.000000000000000000e+00 7.787053671753112916e+00 0.000000000000000000e+00 0.000000000000000000e+00 0.000000000000000000e+00 8.511759127870272224e+00
7.796296607843988369e+00 0.000000000000000000e+00 0.000000000000000000e+00 0.000000000000000000e+00 7.796296607843988369e+00 0.000000000000000000e+00 0.000000000000000000e+00 0.000000000000000000e+00 8.521862261733591737e+00
7.803219875136577777e+00 0.000000000000000000e+00 0.000000000000000000e+00 0.000000000000000000e+00 7.803219875136577777e+00 0.000000000000000000e+00 0.000000000000000000e+00 0.000000000000000000e+00 8.529429845835297286e+00
7.807631624176221585e+00 0.000000000000000000e+00 0.000000000000000000e+00 0.000000000000000000e+00 7.807631624176221585e+00 0.000000000000000000e+00 0.000000000000000000e+00 0.000000000000000000e+00 8.534252176172511639e+00
7.805868061154821014e+00 0.000000000000000000e+00 0.000000000000000000e+00 0.000000000000000000e+00 7.805868061154821014e+00 0.000000000000000000e+00 0.000000000000000000e+00 0.000000000000000000e+00 8.532324486410875153e+00
7.796358858873652764e+00 0.000000000000000000e+00 0.000000000000000000e+00 0.000000000000000000e+00 7.796358858873652764e+00 0.000000000000000000e+00 0.000000000000000000e+00 0.000000000000000000e+00 8.521930306180907522e+00
7.782267853384723821e+00 0.000000000000000000e+00 0.000000000000000000e+00 0.000000000000000000e+00 7.782267853384723821e+00 0.000000000000000000e+00 0.000000000000000000e+00 0.000000000000000000e+00 8.506527915283706776e+00
7.771885307672783405e+00 0.000000000000000000e+00 0.000000000000000000e+00 0.000000000000000000e+00 7.771885307672783405e+00 0.000000000000000000e+00 0.000000000000000000e+00 0.000000000000000000e+00 8.495179113547827399e+00
7.773194164448610444e+00 0.000000000000000000e+00 0.000000000000000000e+00 0.000000000000000000e+00 7.773194164448610444e+00 0.000000000000000000e+00 0.000000000000000000e+00 0.000000000000000000e+00 8.496609779634482607e+00
7.785567737706595715e+00 0.000000000000000000e+00 0.000000000000000000e+00 0.000000000000000000e+00 7.785567737706595715e+00 0.000000000000000000e+00 0.000000000000000000e+00 0.000000000000000000e+00 8.510134904740791484e+00
7.801322231809983521e+00 0.000000000000000000e+00 0.000000000000000000e+00 0.000000000000000000e+00 7.801322231809983521e+00 0.000000000000000000e+00 0.000000000000000000e+00 0.000000000000000000e+00 8.527355597527296993e+00
7.814502008571220237e+00 0.000000000000000000e+00 0.000000000000000000e+00 0.000000000000000000e+00 7.814502008571220237e+00 0.000000000000000000e+00 0.000000000000000000e+00 0.000000000000000000e+00 8.541761955807961826e+00
7.823716081743239847e+00 0.000000000000000000e+00 0.000000000000000000e+00 0.000000000000000000e+00 7.823716081743239847e+00 0.000000000000000000e+00 0.000000000000000000e+00 0.000000000000000000e+00 8.551833540611886164e+00
7.829273652737187561e+00 0.000000000000000000e+00 0.000000000000000000e+00 0.000000000000000000e+00 7.829273652737187561e+00 0.000000000000000000e+00 0.000000000000000000e+00 0.000000000000000000e+00 8.557908329309572792e+00
7.827579560175894180e+00 0.000000000000000000e+00 0.000000000000000000e+00 0.000000000000000000e+00 7.827579560175894180e+00 0.000000000000000000e+00 0.000000000000000000e+00 0.000000000000000000e+00 8.556056575305825973e+00
7.814576025527155245e+00 0.000000000000000000e+00 0.000000000000000000e+00 0.000000000000000000e+00 7.814576025527155245e+00 0.000000000000000000e+00 0.000000000000000000e+00 0.000000000000000000e+00 8.541842861183244651e+00
7.790764895791189026e+00 0.000000000000000000e+00 0.000000000000000000e+00 0.000000000000000000e+00 7.790764895791189026e+00 0.000000000000000000e+00 0.000000000000000000e+00 0.000000000000000000e+00 8.515815738550200464e+00
7.761040321604789405e+00 0.000000000000000000e+00 0.000000000000000000e+00 0.000000000000000000e+00 7.761040321604789405e+00 0.000000000000000000e+00 0.000000000000000000e+00 0.000000000000000000e+00 8.483324834246630530e+00
7.733310858233930496e+00 0.000000000000000000e+00 0.000000000000000000e+00 0.000000000000000000e+00 7.733310858233930496e+00 0.000000000000000000e+00 0.000000000000000000e+00 0.000000000000000000e+00 8.453014716593793665e+00
7.712751357666606467e+00 0.000000000000000000e+00 0.000000000000000000e+00 0.000000000000000000e+00 7.712751357666606467e+00 0.000000000000000000e+00 0.000000000000000000e+00 0.000000000000000000e+00 8.430541837376454239e+00
7.699185974461038029e+00 0.000000000000000000e+00 0.000000000000000000e+00 0.000000000000000000e+00 7.699185974461038029e+00 0.000000000000000000e+00 0.000000000000000000e+00 0.000000000000000000e+00 8.415713986024030646e+00
7.692812008614504649e+00 0.000000000000000000e+00 0.000000000000000000e+00 0.000000000000000000e+00 7.692812008614504649e+00 0.000000000000000000e+00 0.000000000000000000e+00 0.000000000000000000e+00 8.408746824340113335e+00
7.695710808379140566e+00 0.000000000000000000e+00 0.000000000000000000e+00 0.000000000000000000e+00 7.695710808379140566e+00 0.000000000000000000e+00 0.000000000000000000e+00 0.000000000000000000e+00 8.411915402134823694e+00
7.707861689431010355e+00 0.000000000000000000e+00 0.000000000000000000e+00 0.000000000000000000e+00 7.707861689431010355e+00 0.000000000000000000e+00 0.000000000000000000e+00 0.000000000000000000e+00 8.425197110091312780e+00
7.725860745931020013e+00 0.000000000000000000e+00 0.000000000000000000e+00 0.000000000000000000e+00 7.725860745931020013e+00 0.000000000000000000e+00 0.000000000000000000e+00 0.000000000000000000e+00 8.444871256426003114e+00
7.744516930944401523e+00 0.000000000000000000e+00 0.000000000000000000e+00 0.000000000000000000e+00 7.744516930944401523e+00 0.000000000000000000e+00 0.000000000000000000e+00 0.000000000000000000e+00 8.465263687218030242e+00
7.759516847241366477e+00 0.000000000000000000e+00 0.000000000000000000e+00 0.000000000000000000e+00 7.759516847241366477e+00 0.000000000000000000e+00 0.000000000000000000e+00 0.000000000000000000e+00 8.481659577094351476e+00
7.768799155505605292e+00 0.000000000000000000e+00 0.000000000000000000e+00 0.000000000000000000e+00 7.768799155505605292e+00 0.000000000000000000e+00 0.000000000000000000e+00 0.000000000000000000e+00 8.491805747318938558e+00
7.772308856275710554e+00 0.000000000000000000e+00 0.000000000000000000e+00 0.000000000000000000e+00 7.772308856275710554e+00 0.000000000000000000e+00 0.000000000000000000e+00 0.000000000000000000e+00 8.495642079880855846e+00
7.770613841055728166e+00 0.000000000000000000e+00 0.000000000000000000e+00 0.000000000000000000e+00 7.770613841055728166e+00 0.000000000000000000e+00 0.000000000000000000e+00 0.000000000000000000e+00 8.493789317349913048e+00
7.763583750675045358e+00 0.000000000000000000e+00 0.000000000000000000e+00 0.000000000000000000e+00 7.763583750675045358e+00 0.000000000000000000e+00 0.000000000000000000e+00 0.000000000000000000e+00 8.486104968623338962e+00
7.752102836871642033e+00 0.000000000000000000e+00 0.000000000000000000e+00 0.000000000000000000e+00 7.752102836871642033e+00 0.000000000000000000e+00 0.000000000000000000e+00 0.000000000000000000e+00 8.473555578702406166e+00
7.740176050938814001e+00 0.000000000000000000e+00 0.000000000000000000e+00 0.000000000000000000e+00 7.740176050938814001e+00 0.000000000000000000e+00 0.000000000000000000e+00 0.000000000000000000e+00 8.460518821371907805e+00
7.733468643614670235e+00 0.000000000000000000e+00 0.000000000000000000e+00 0.000000000000000000e+00 7.733468643614670235e+00 0.000000000000000000e+00 0.000000000000000000e+00 0.000000000000000000e+00 8.453187186339006232e+00
7.734622216655356652e+00 0.000000000000000000e+00 0.000000000000000000e+00 0.000000000000000000e+00 7.734622216655356652e+00 0.000000000000000000e+00 0.000000000000000000e+00 0.000000000000000000e+00 8.454448117142709052e+00
7.742791174667374321e+00 0.000000000000000000e+00 0.000000000000000000e+00 0.000000000000000000e+00 7.742791174667374321e+00 0.000000000000000000e+00 0.000000000000000000e+00 0.000000000000000000e+00 8.463377322701512995e+00
7.756197843297552019e+00 0.000000000000000000e+00 0.000000000000000000e+00 0.000000000000000000e+00 7.756197843297552019e+00 0.000000000000000000e+00 0.000000000000000000e+00 0.000000000000000000e+00 8.478031688639569907e+00
7.773082486956459647e+00 0.000000000000000000e+00 0.000000000000000000e+00 0.000000000000000000e+00 7.773082486956459647e+00 0.000000000000000000e+00 0.000000000000000000e+00 0.000000000000000000e+00 8.496487708829159047e+00
7.790648019503963795e+00 0.000000000000000000e+00 0.000000000000000000e+00 0.000000000000000000e+00 7.790648019503963795e+00 0.000000000000000000e+00 0.000000000000000000e+00 0.000000000000000000e+00 8.515687985120587555e+00
7.804549590151337313e+00 0.000000000000000000e+00 0.000000000000000000e+00 0.000000000000000000e+00 7.804549590151337313e+00 0.000000000000000000e+00 0.000000000000000000e+00 0.000000000000000000e+00 8.530883311343714581e+00
7.810720575250289066e+00 0.000000000000000000e+00 0.000000000000000000e+00 0.000000000000000000e+00 7.810720575250289066e+00 0.000000000000000000e+00 0.000000000000000000e+00 0.000000000000000000e+00 8.537628601790789418e+00
7.806922304482278641e+00 0.000000000000000000e+00 0.000000000000000000e+00 0.000000000000000000e+00 7.806922304482278641e+00 0.000000000000000000e+00 0.000000000000000000e+00 0.000000000000000000e+00 8.533476843340562112e+00
7.793184532253032870e+00 0.000000000000000000e+00 0.000000000000000000e+00 0.000000000000000000e+00 7.793184532253032870e+00 0.000000000000000000e+00 0.000000000000000000e+00 0.000000000000000000e+00 8.518460559505815155e+00
7.772840864344311207e+00 0.000000000000000000e+00 0.000000000000000000e+00 0.000000000000000000e+00 7.772840864344311207e+00 0.000000000000000000e+00 0.000000000000000000e+00 0.000000000000000000e+00 8.496223599505452029e+00
7.750525789566601986e+00 0.000000000000000000e+00 0.000000000000000000e+00 0.000000000000000000e+00 7.750525789566601986e+00 0.000000000000000000e+00 0.000000000000000000e+00 0.000000000000000000e+00 8.471831762819208578e+00
7.728938418669009103e+00 0.000000000000000000e+00 0.000000000000000000e+00 0.000000000000000000e+00 7.728938418669009103e+00 0.000000000000000000e+00 0.000000000000000000e+00 0.000000000000000000e+00 8.448235354085245064e+00
7.710561757289606355e+00 0.000000000000000000e+00 0.000000000000000000e+00 0.000000000000000000e+00 7.710561757289606355e+00 0.000000000000000000e+00 0.000000000000000000e+00 0.000000000000000000e+00 8.428148460911449646e+00
7.699411894706572390e+00 0.000000000000000000e+00 0.000000000000000000e+00 0.000000000000000000e+00 7.699411894706572390e+00 0.000000000000000000e+00 0.000000000000000000e+00 0.000000000000000000e+00 8.415960931632538333e+00
7.699658661714106955e+00 0.000000000000000000e+00 0.000000000000000000e+00 0.000000000000000000e+00 7.699658661714106955e+00 0.000000000000000000e+00 0.000000000000000000e+00 0.000000000000000000e+00 8.416230664116875815e+00
7.711437769680014931e+00 0.000000000000000000e+00 0.000000000000000000e+00 0.000000000000000000e+00 7.711437769680014931e+00 0.000000000000000000e+00 0.000000000000000000e+00 0.000000000000000000e+00 8.429105999766568047e+00
7.730465753599209400e+00 0.000000000000000000e+00 0.000000000000000000e+00 0.000000000000000000e+00 7.730465753599209400e+00 0.000000000000000000e+00 0.000000000000000000e+00 0.000000000000000000e+00 8.449904831088231205e+00
7.751061044736512251e+00 0.000000000000000000e+00 0.000000000000000000e+00 0.000000000000000000e+00 7.751061044736512251e+00 0.000000000000000000e+00 0.000000000000000000e+00 0.000000000000000000e+00 8.472416831739376875e+00
7.767567678206358295e+00 0.000000000000000000e+00 0.000000000000000000e+00 0.000000000000000000e+00 7.767567678206358295e+00 0.000000000000000000e+00 0.000000000000000000e+00 0.000000000000000000e+00 8.490459662062413315e+00
7.775863167651023033e+00 0.000000000000000000e+00 0.000000000000000000e+00 0.000000000000000000e+00 7.775863167651023033e+00 0.000000000000000000e+00 0.000000000000000000e+00 0.000000000000000000e+00 8.499527174753078285e+00
7.776441097350286213e+00 0.000000000000000000e+00 0.000000000000000000e+00 0.000000000000000000e+00 7.776441097350286213e+00 0.000000000000000000e+00 0.000000000000000000e+00 0.000000000000000000e+00 8.500158889725737410e+00
7.772590936646970761e+00 0.000000000000000000e+00 0.000000000000000000e+00 0.000000000000000000e+00 7.772590936646970761e+00 0.000000000000000000e+00 0.000000000000000000e+00 0.000000000000000000e+00 8.495950412182001088e+00
7.764868217957264562e+00 0.000000000000000000e+00 0.000000000000000000e+00 0.000000000000000000e+00 7.764868217957264562e+00 0.000000000000000000e+00 0.000000000000000000e+00 0.000000000000000000e+00 8.487508975398453615e+00