1.265180945999999987e-03 7.736950765431999777e+00 1.723014155999999953e-03 1.755349020000000044e-04 7.736102756788000079e+00 4.231782290252000145e+00 7.732197318853000212e+00 3.869975266945000048e+00 8.456962198509000217e+00 3.967270705999999952e-03 3.863757409923000097e+00 4.229622711362000409e+00 3.869435721583000198e+00 3.478120712000000100e-03 8.455499697324000863e+00 3.868145198166999865e+00 7.736920985551000385e+00 4.229796595392000036e+00 3.864857293836000185e+00 3.868266978342000062e+00 4.267908219999999933e-04 3.870309341628999977e+00 3.870963446820999909e+00 4.225564860587000204e+00 1.943762399604000102e+00 1.936529574304999946e+00 1.949724505950999998e+00 1.935337478321000004e+00 1.931033277992000086e+00 6.183258040437999981e+00 1.933804947952000086e+00 5.810867271349000163e+00 1.948658676361000097e+00 1.937366764570999988e+00 5.796989221968999573e+00 6.174189193171000234e+00 5.802062915139999610e+00 1.930489087662000003e+00 1.944646371177999988e+00 5.804511652718000292e+00 1.938425804238000039e+00 6.177074641338999861e+00 5.801467641172999734e+00 5.799923757020000181e+00 1.941553538987000005e+00 5.803199814859000050e+00 5.800295948127000223e+00 6.184971240193999797e+00 7.737466443905000268e+00 1.951962628378999920e+00 1.589518904486000084e+00 7.731491419529000098e+00 1.933762445536999941e+00 5.824062475655000348e+00 1.349735948000000026e-03 5.804741977355999616e+00 1.581782902307999894e+00 6.893038352000000098e-03 5.814339275975999755e+00 5.806555591976000130e+00 3.871639837181000132e+00 1.927159792686000017e+00 1.587871876167000096e+00 3.875846572688999903e+00 1.942744885428999924e+00 5.813806010266000079e+00 3.865415952058000038e+00 5.806306577053000240e+00 1.580261172458000019e+00 3.878580737945999779e+00 5.807780838884999852e+00 5.818837531956999598e+00 1.936366201833999989e+00 7.802563151999999599e-03 1.588273489916999903e+00 1.939546917843999907e+00 7.734464107384000364e+00 5.828164129126999882e+00 1.935263877286999890e+00 3.873919900101999936e+00 1.588429818720000108e+00 1.920598449522000095e+00 3.885158829963999860e+00 5.810193908322999867e+00 5.808454286657999788e+00 7.725571526556000101e+00 1.597614444890000041e+00 5.796135980034000212e+00 7.735335587876999597e+00 5.805501834955999918e+00 5.794861935062000313e+00 3.864039907810000063e+00 1.600992575940000107e+00 5.784353922951000371e+00 3.868775025466999917e+00 5.831417889026999646e+00 1.945861155897999906e+00 1.926535172561999909e+00 3.731676668871999780e+00 1.927205248009999927e+00 1.928286606466999897e+00 7.941057140867999742e+00 1.937173093039999960e+00 5.790946171589999913e+00 3.714679427012999913e+00 1.936974664952000103e+00 5.800462498021000002e+00 7.951607423413999953e+00 5.796029020214000127e+00 1.938852542383000088e+00 3.715027619163000061e+00 5.802067688863999706e+00 1.929046608756999959e+00 7.944830928532000236e+00 5.808741128883999849e+00 5.808800633054000073e+00 3.721167360722999806e+00 5.803685359113000430e+00 5.809101534596999628e+00 7.959978447023999593e+00
7.531532137000000390e-03 7.736426641635000045e+00 9.998045579999999960e-03 7.407406159999999637e-04 7.731253982861000296e+00 4.247603585483999744e+00 7.708176232008000284e+00 3.877281932335999937e+00 8.456253153886999385e+00 2.356323190900000072e-02 3.840178743922999960e+00 4.234444643733000113e+00 3.874086365049000058e+00 2.041273515599999894e-02 8.447035279484000014e+00 3.866594003803999868e+00 7.736350825413000010e+00 4.235768995544000326e+00 3.846574434183000157e+00 3.867344670481999813e+00 2.302593594000000143e-03 3.879388181352000142e+00 3.883129109902999865e+00 4.210303302736999598e+00 1.987532660674999896e+00 1.949172266072999982e+00 1.958746513814999979e+00 1.941769102535999991e+00 1.914019164223000002e+00 6.201537033694999757e+00 1.931660368338999900e+00 5.848639161323999858e+00 1.943050677560999917e+00 1.953051680288000025e+00 5.771258371519000008e+00 6.161499011072000265e+00 5.801219310159999587e+00 1.911602139066000072e+00 1.924695953961000017e+00 5.811648912588999849e+00 1.956304737416000084e+00 6.173059227401999749e+00 5.795171967848999905e+00 5.785777509613000191e+00 1.909963520597999898e+00 5.806060595097999766e+00 5.790399769036000066e+00 6.219321031585000270e+00 3.814317055000000008e-03 2.032906405030999952e+00 1.593866199639000003e+00 7.713579411901999805e+00 1.933351548447999946e+00 5.855602341680000045e+00 8.418162785999999329e-03 5.811947246227999742e+00 1.548533745424000019e+00 3.081136154600000107e-02 5.868074178998999635e+00 5.758686931619999783e+00 3.881401079718000080e+00 1.893849587914000043e+00 1.581339265828999974e+00 3.896045287134000112e+00 1.984049129776999987e+00 5.800789424982999876e+00 3.851854247302000100e+00 5.824025547649999801e+00 1.539793079662000075e+00 3.920055525365000015e+00 5.830071067328000289e+00 5.827853738245000415e+00 1.943980132225999968e+00 4.588408937900000095e-02 1.586858655092000081e+00 1.965734538218000038e+00 7.731335211552999631e+00 5.879947770449000188e+00 1.943183255831000045e+00 3.892407678745000155e+00 1.586527377027000085e+00 1.859078671183000075e+00 3.944752695122999864e+00 5.779071981823999948e+00 5.835942234023000275e+00 7.683538230832000160e+00 1.637184822630999959e+00 5.766203312254999602e+00 7.729456761964000222e+00 5.752214279370999606e+00 5.755103327092999876e+00 3.844856148694999920e+00 1.654296107861999987e+00 5.704611933228999732e+00 3.875744508223999851e+00 5.899658923557000278e+00 2.000810001374000002e+00 1.892832407695999919e+00 3.771572708624999937e+00 1.895456801521999912e+00 1.902947561323999892e+00 7.924170203579000038e+00 1.951456529025000108e+00 5.737576503309999687e+00 3.695910492868999864e+00 1.950050388563999926e+00 5.788535581907000349e+00 7.958837608278000353e+00 5.763921145150000314e+00 1.960704201470000019e+00 3.692014963715000153e+00 5.798455293326999715e+00 1.902375800496000080e+00 7.937141362102999587e+00 5.837137392743000142e+00 5.834154190446000143e+00 3.715469852436999787e+00 5.809306178293000222e+00 5.838694728456999883e+00 8.011437668105999776e+00
1.368716860700000017e-02 7.738915214244999952e+00 1.758901608600000124e-02 1.315901319999999931e-04 7.728813575624999821e+00 4.264093548973000303e+00 7.688012287763999808e+00 3.885858100225000111e+00 8.459118061170000757e+00 4.226956361700000275e-02 3.818988429291000131e+00 4.239108411110000141e+00 3.880341274942999963e+00 3.594592306299999873e-02 8.440525303221999565e+00 3.867648114526999858e+00 7.738817719800000106e+00 4.242741957089999794e+00 3.829759501340999961e+00 3.868882677964000205e+00 3.822172206000000027e-03 3.890463059591999784e+00 3.896590341651000156e+00 4.195835282391000121e+00 2.018044014666999786e+00 1.967178287237000056e+00 1.983961280624999990e+00 1.952511240436000106e+00 1.894656643633999993e+00 6.198799890037999916e+00 1.931024116731999918e+00 5.878565108052000276e+00 1.931099235927000057e+00 1.969437269448000016e+00 5.760752764982999707e+00 6.166553220880000019e+00 5.812552956535999904e+00 1.893983236920999902e+00 1.914991194658999918e+00 5.815012047580999877e+00 1.964637590079999940e+00 6.172548008168000422e+00 5.792123658983999945e+00 5.774598626066000051e+00 1.899330296550000075e+00 5.813781597794999811e+00 5.791872717912999846e+00 6.250506921353999878e+00 1.388969656399999947e-02 2.086261849357999854e+00 1.602019050371999986e+00 7.724302299225000112e+00 1.940268914999000005e+00 5.878309431965999643e+00 1.808537327799999983e-02 5.811889976664000201e+00 1.523119564918000046e+00 2.307028786000000012e-02 5.906873994687000362e+00 5.736962381742999995e+00 3.879162978246000204e+00 1.871037634144000039e+00 1.568609552294000009e+00 3.871858600351000046e+00 2.018540028494999916e+00 5.804600475674999593e+00 3.845929449854000204e+00 5.845247150687000293e+00 1.508942645876000022e+00 3.928825691356999883e+00 5.844139480074000303e+00 5.842559844714999784e+00 1.940874956665999962e+00 6.951906201099999905e-02 1.589420404860999891e+00 1.989915915966999904e+00 1.179642097800000060e-02 5.923012657153999605e+00 1.962705592065000060e+00 3.890598374750000144e+00 1.584560700846000092e+00 1.824483884271000056e+00 3.930393732736999990e+00 5.765838062740000325e+00 5.861967833427000230e+00 7.697166269598000099e+00 1.660467117907000079e+00 5.751709216395999746e+00 7.739693081633999938e+00 5.723812036378999935e+00 5.718151780596000044e+00 3.841155874919000013e+00 1.679332594221000008e+00 5.671732702174000273e+00 3.898930500562999946e+00 5.961569476254999778e+00 2.043268965975999940e+00 1.879843769270000076e+00 3.766344580411999932e+00 1.878209783581000103e+00 1.895624357543999938e+00 7.959976825025999680e+00 1.965010916276999975e+00 5.709151008483000389e+00 3.695806028792000042e+00 1.961102962303000075e+00 5.777220710179999941e+00 7.944980404147999664e+00 5.740830001586999742e+00 1.978512940499000061e+00 3.680750149612999955e+00 5.797110063300999983e+00 1.875607787771000012e+00 7.955178099134999847e+00 5.860898698379999772e+00 5.843541372936000400e+00 3.680506340172999824e+00 5.820466021555000147e+00 5.862925764595999567e+00 8.041078243770000356e+00
2.001016172400000084e-02 7.744602099087999569e+00 2.444844016999999856e-02 7.749584673591000339e+00 7.727967279399999612e+00 4.280337845983999578e+00 7.671723771475999598e+00 3.894329182657000121e+00 8.464976695914000260e+00 5.989922583599999878e-02 3.800222342770999795e+00 4.242583038705999954e+00 3.887474236844000064e+00 5.039412723000000205e-02 8.435069686493999797e+00 3.871209520604999899e+00 7.743576180504000206e+00 4.249913134546999594e+00 3.813776173593999896e+00 3.872007866092999961e+00 5.010021287999999635e-03 3.903180349418999828e+00 3.910862490513999923e+00 4.181742752877999791e+00 2.029458080601000081e+00 1.990577475654000006e+00 2.008607664042000085e+00 1.966258247634000034e+00 1.878024969046999892e+00 6.194760514426000064e+00 1.933116357080999936e+00 5.895808076649999840e+00 1.918468550844999898e+00 1.983882929508000048e+00 5.763282715090999986e+00 6.182294672309000205e+00 5.837243030590999915e+00 1.880038723988999960e+00 1.916994234574000089e+00 5.812561064660999754e+00 1.961602029854000007e+00 6.181411412134999672e+00 5.792031123462000330e+00 5.767595487814999977e+00 1.904189874073000110e+00 5.826160804097000323e+00 5.806447697234999872e+00 6.275880749433000005e+00 1.693522537699999886e-02 2.102734962707999866e+00 1.619111036662999936e+00 7.740579713706999598e+00 1.951806106293999976e+00 5.883722406133999883e+00 2.909618941200000156e-02 5.800960915891000269e+00 1.511582802026999905e+00 7.741528286307000073e+00 5.920455315565999577e+00 5.754029806194999708e+00 3.877501713552999885e+00 1.863188683956999991e+00 1.551436947513000097e+00 3.829715255198999913e+00 2.040422306167000155e+00 5.826408429814000201e+00 3.849506835469000077e+00 5.871821902996999576e+00 1.495079460863000032e+00 3.898357062145000107e+00 5.846935519375000112e+00 5.860598989910999812e+00 1.921748341066999988e+00 5.578719430700000009e-02 1.598700673870000033e+00 2.005332721279999841e+00 3.063169436299999909e-02 5.945676575201000347e+00 1.996058775704999899e+00 3.882828377726999847e+00 1.585236339726999955e+00 1.826656711012000001e+00 3.866069407124999913e+00 5.777495451371000179e+00 5.884608166371999793e+00 6.674037728999999974e-03 1.663326193557999932e+00 5.755154895657000225e+00 2.134458653000000095e-02 5.728902395401999748e+00 5.686992404746000318e+00 3.861390659951999815e+00 1.665340706380000091e+00 5.698152331829000161e+00 3.925507492294999956e+00 6.009382679929999860e+00 2.066113104474000206e+00 1.893409278091999992e+00 3.751162874053000085e+00 1.882460512103999895e+00 1.910893750247000034e+00 7.998997487472999879e+00 1.974901046844999897e+00 5.715555432990999662e+00 3.699511047539000064e+00 1.965990788415000079e+00 5.766222310573000165e+00 7.922116948033999684e+00 5.729104067149999757e+00 1.990003242948999995e+00 3.694593022725999987e+00 5.798477468893000086e+00 1.852589139238000060e+00 7.971790676317000113e+00 5.873603919347999636e+00 5.833974691195000339e+00 3.638872518777000131e+00 5.836847112324000442e+00 5.881052554770000107e+00 8.038835813592999813e+00
2.691309556100000139e-02 7.754162421451000320e+00 3.051975256300000147e-02 7.754847537994000284e+00 7.728766147656999763e+00 4.296306779680000076e+00 7.659559583453000364e+00 3.901785196624000029e+00 8.473364506099999360e+00 7.665929903300000570e-02 3.783805691073999888e+00 4.245442762633000022e+00 3.894941315854000052e+00 6.464241795099999466e-02 8.430939338620000001e+00 3.877006437697000152e+00 7.750618026535000205e+00 4.257007111647999942e+00 3.798516386116999932e+00 3.875748427522999862e+00 5.506499191999999869e-03 3.917229082173999899e+00 3.925659203471000058e+00 4.168605545182000327e+00 2.023348326828000143e+00 2.014339977259000047e+00 2.010109516302000188e+00 1.976890076082000069e+00 1.875153765839999931e+00 6.211110203199999624e+00 1.939270140502999951e+00 5.900323071862000113e+00 1.913892400159000085e+00 1.992055698071000025e+00 5.768232294860999865e+00 6.192964076876999790e+00 5.869713775563999647e+00 1.876354691013000009e+00 1.933476111402999909e+00 5.807304452159000263e+00 1.952211525250999946e+00 6.200766707170999759e+00 5.794634888245999704e+00 5.766650543165999565e+00 1.907043055970000012e+00 5.841313852146999608e+00 5.829977761694999927e+00 6.289507836813999830e+00 7.880312088000000076e-03 2.089432050464000046e+00 1.647736740520999943e+00 7.734796692997999656e+00 1.958803922640999895e+00 5.868685424439999743e+00 3.098464437000000155e-02 5.780933591950000228e+00 1.515407856181999913e+00 7.713326427645999850e+00 5.908849903814999749e+00 5.807377104461999728e+00 3.884118607378999943e+00 1.868529441543999914e+00 1.537447263101000106e+00 3.825362249889999955e+00 2.047194148032999816e+00 5.859839071398999621e+00 3.865194247755999957e+00 5.906044456348999994e+00 1.500902643287999938e+00 3.855953929652999879e+00 5.841484499107999717e+00 5.876578965951999578e+00 1.889213519379999928e+00 1.277192095200000051e-02 1.615579093295999913e+00 2.004350233510999946e+00 6.740445666999999794e-03 5.939198148995999738e+00 2.036208359265999857e+00 3.884828537695999895e+00 1.594791408629999907e+00 1.859963556589000033e+00 3.822970592203000173e+00 5.809034837882999902e+00 5.905116966535000067e+00 5.644708564999999928e-02 1.648843171573999955e+00 5.767496028341000169e+00 5.602710954400000332e-02 5.764412814807999830e+00 5.670536792553000360e+00 3.899385900666000104e+00 1.615595055708000105e+00 5.771444796539999977e+00 3.940346467993999902e+00 6.034943220547000386e+00 2.067188394053999900e+00 1.927092913961000020e+00 3.769901354126000026e+00 1.907361426897000056e+00 1.940277719675999935e+00 8.002314828950000347e+00 1.977927888920000044e+00 5.756300816976000156e+00 3.695597024397999864e+00 1.960758677277000039e+00 5.757869010482999705e+00 7.927413843761000223e+00 5.729271085222999993e+00 1.997072650363000079e+00 3.728849927989999813e+00 5.804303341367000435e+00 1.838111717876000029e+00 7.971252276068000242e+00 5.871875433297000235e+00 5.815801379899999901e+00 3.638437286798000159e+00 5.857456166168000244e+00 5.900350257692999811e+00 8.028156593280000308e+00
3.438659251900000324e-02 7.766400977490000024e+00 3.564909778800000317e-02 7.760331986187999576e+00 7.730556539233999658e+00 4.312250196181000028e+00 7.650505913775000444e+00 3.908309589874999990e+00 8.482694161914000830e+00 9.248862966500000227e-02 3.769163469390000021e+00 4.248722631581999920e+00 3.902420870573999778e+00 7.886926481400000077e-02 8.427914134909000765e+00 3.884287863117000139e+00 7.759430473950000184e+00 4.263828523434000317e+00 3.784148186011000004e+00 3.879684328219000111e+00 4.404561440000000390e-03 3.932285553304000203e+00 3.940365804329999833e+00 4.157051218397000092e+00 2.007143937312999782e+00 2.030766154954000147e+00 1.993474894173000056e+00 1.980009898512999911e+00 1.888176050723000099e+00 6.241019295354999663e+00 1.948560053216999988e+00 5.894578450775999734e+00 1.918552007710000007e+00 1.989195785761999957e+00 5.769540397731000247e+00 6.196853912875000425e+00 5.898958524162999595e+00 1.888268689098999920e+00 1.967154546516000080e+00 5.802367700842999909e+00 1.946067104231999911e+00 6.222573386357000302e+00 5.800301956341000320e+00 5.774643582248000229e+00 1.903429963897999899e+00 5.856078665726999866e+00 5.853153275092999763e+00 6.284012813527000141e+00 3.459354949000000099e-03 2.062607514729000169e+00 1.684298089184000036e+00 7.723917261775000043e+00 1.952627038891999955e+00 5.837872628580999645e+00 1.493079075599999979e-02 5.755793416959999576e+00 1.531888425448999946e+00 7.708983567633000078e+00 5.884210010093999799e+00 5.878590481396999579e+00 3.886899160293999955e+00 1.881210658312999939e+00 1.535795063134999916e+00 3.870606911315999987e+00 2.035073784918000062e+00 5.897925590116000372e+00 3.891853473808999819e+00 5.947166174329000299e+00 1.524702010358000015e+00 3.842322010589000136e+00 5.830258610569999611e+00 5.884349829505000073e+00 1.853013115038999903e+00 7.756360962139000392e+00 1.635136965982000090e+00 1.982702355540999939e+00 7.724734764761000072e+00 5.906758855048000356e+00 2.070842196635000132e+00 3.889866704104000039e+00 1.619357935742999910e+00 1.906789332260000025e+00 3.837257802377000093e+00 5.847160672160000239e+00 5.923885780431000114e+00 6.107985162300000326e-02 1.624434394359999922e+00 5.776785114457999804e+00 6.503869078299999440e-02 5.817579733187000279e+00 5.677739397388999798e+00 3.929219993594000204e+00 1.544857695933999908e+00 5.864675099060000285e+00 3.944129610001999797e+00 6.034138933736000077e+00 2.048359674094000216e+00 1.972016286541000030e+00 3.794221485957999906e+00 1.942332677291999987e+00 1.970554104067999912e+00 7.991250121155999864e+00 1.973483068773999927e+00 5.818467840214999853e+00 3.692798587051000059e+00 1.944686644339999937e+00 5.753792361961999724e+00 7.971469623264000326e+00 5.741731627489000012e+00 2.003557724974999843e+00 3.755502859102000102e+00 5.816469543190000202e+00 1.834435913537000085e+00 7.978794799502000323e+00 5.853315806749000316e+00 5.797708464938000184e+00 3.683769503146999913e+00 5.878636751548000028e+00 5.927504507504999687e+00 8.042344296545000049e+00
4.172190200300000124e-02 7.776786545026999953e+00 3.981894929700000030e-02 7.763527955636000399e+00 7.730012872254000023e+00 4.326865958544999557e+00 7.640685024301999917e+00 3.913683612913999799e+00 8.488739541596000748e+00 1.069783625170000058e-01 3.754780803315000082e+00 4.251722451108999934e+00 3.909156368191000208e+00 9.252295388100000018e-02 8.423348703260000292e+00 3.891074133381000166e+00 7.766653068820000172e+00 4.268929579505000405e+00 3.770001659231999813e+00 3.882950712022999795e+00 9.274529429999999689e-04 3.947035812265000221e+00 3.953589859797999928e+00 4.146131387310999727e+00 1.988361548424000036e+00 2.032335729740000207e+00 1.979052343036000083e+00 1.976157535128000076e+00 1.910940152817000026e+00 6.258609490217000193e+00 1.956828881250000096e+00 5.883585982242999890e+00 1.926553060445000076e+00 1.974101487165000002e+00 5.766194239119999843e+00 6.208412434342999831e+00 5.913110163716000400e+00 1.909189547935999931e+00 2.008307711682999930e+00 5.799568123553999754e+00 1.950332762566999945e+00 6.240721646927999799e+00 5.808883254543999897e+00 5.793590713591999730e+00 1.905340296339999906e+00 5.867110526327000031e+00 5.865983439569999902e+00 6.265676569577999899e+00 1.574213620499999994e-02 2.039972497041000032e+00 1.720811411744000097e+00 7.748155886758000044e+00 1.929720815935999978e+00 5.802176253868999822e+00 7.769551424807000117e+00 5.728182169633000420e+00 1.559829961649999985e+00 7.744461931906999830e+00 5.860526163607000072e+00 5.943077153632000176e+00 3.878760931867999862e+00 1.893268328493999952e+00 1.551135946900999985e+00 3.915882951579999993e+00 2.002748455050999965e+00 5.934255259459000342e+00 3.914073014192999800e+00 5.985342861793999880e+00 1.562752349326999912e+00 3.871655738577000072e+00 5.812956763609999911e+00 5.879784284834999930e+00 1.822844607965000030e+00 6.593706250000000478e-04 1.650257433104999949e+00 1.946747031349999935e+00 7.711479919517000070e+00 5.861159147292999805e+00 2.087890016467000009e+00 3.891896673714999810e+00 1.658320549824999990e+00 1.950322274266999889e+00 3.880750557312000026e+00 5.880600446501000000e+00 5.937684882797999997e+00 3.374740293000000335e-02 1.604287809095999995e+00 5.778804375234000368e+00 2.936696898300000108e-02 5.870019475255999986e+00 5.708175464269999999e+00 3.922871458321000038e+00 1.476173747935999980e+00 5.948057918199999961e+00 3.936110795259000206e+00 6.008256191403999580e+00 2.015869386419999909e+00 2.019591965586999827e+00 3.778988488577000204e+00 1.974003598042000096e+00 1.992529504274999974e+00 8.002008394246999501e+00 1.964625152213999915e+00 5.880467079338999703e+00 3.704029998641999999e+00 1.922509010254999984e+00 5.753947613661999583e+00 8.016157583806000630e+00 5.763781802945000088e+00 2.011349865819000104e+00 3.759779132221999998e+00 5.835152025490000227e+00 1.842354729715000028e+00 8.011369710785999132e+00 5.816458586447000201e+00 5.780423186592000384e+00 3.727349816783999792e+00 5.892106069577000227e+00 5.958088244858999794e+00 8.064505239821000870e+00
4.812743023100000267e-02 7.780816620281999718e+00 4.325008515900000128e-02 7.761665342521999911e+00 7.723194655500000394e+00 4.337963469583000276e+00 7.625917499600999960e+00 3.916931716511999895e+00 8.487383064800999577e+00 1.199336118989999950e-01 3.739255242463999984e+00 4.252413498559000082e+00 3.914188050504999961e+00 1.052349676369999931e-01 8.414257093755999506e+00 3.894965547907999870e+00 7.767837221381999946e+00 4.270504728518999649e+00 3.754907007442000122e+00 3.884132897506999971e+00 8.501549171464999333e+00 3.959659327101999970e+00 3.964215112046999945e+00 4.134021766899000028e+00 1.970693937307000043e+00 2.013966208063000085e+00 1.974029312926999902e+00 1.965273163997999895e+00 1.936094421421999945e+00 6.252600077707000104e+00 1.959650234821999959e+00 5.873799152752999575e+00 1.935904422721000051e+00 1.950784593894999919e+00 5.763631723746000191e+00 6.235298064907000004e+00 5.907422624305000092e+00 1.929172995700999982e+00 2.033212740320999856e+00 5.802576548091000319e+00 1.964365222132000044e+00 6.258433293530000441e+00 5.818653656133999874e+00 5.820459457771000267e+00 1.919109930752000093e+00 5.872055373617000029e+00 5.863307623556999637e+00 6.248882009308999841e+00 2.543220446200000068e-02 2.033066364669999793e+00 1.748616222571999890e+00 2.994667161299999908e-02 1.893533769597000038e+00 5.775705986742000420e+00 7.759727801431999694e+00 5.702028901592999688e+00 1.598983636825000110e+00 2.678292220599999898e-02 5.844405590162000230e+00 5.981586796562999631e+00 3.875066959404999789e+00 1.896547833145000084e+00 1.580793021784000052e+00 3.921064456044999869e+00 1.956411826647000085e+00 5.960448213902999726e+00 3.910569430390999912e+00 6.005189121559999954e+00 1.608519355447000088e+00 3.920467913985000052e+00 5.790582717686000080e+00 5.864444709837999703e+00 1.807177583444999902e+00 3.597568943599999819e-02 1.656796487210999924e+00 1.916289854403000037e+00 7.755221713594999677e+00 5.817750367219000296e+00 2.085171677234999965e+00 3.908507076056999985e+00 1.701779872101000013e+00 1.982849868014999961e+00 3.899946421681999897e+00 5.899865093470999966e+00 5.943621721805000035e+00 9.440065812999999875e-03 1.604784118054999986e+00 5.780177677833999716e+00 7.758743295277000129e+00 5.905956304403000345e+00 5.748574436449000125e+00 3.881289974626000117e+00 1.435068962204999909e+00 6.000566583334999926e+00 3.900912935551000160e+00 5.963789673984000395e+00 1.980396331362999973e+00 2.060088259671000177e+00 3.738886786169000054e+00 1.992237393056000005e+00 2.001465641522000016e+00 8.026143911431999456e+00 1.956492655784999979e+00 5.923053444577999649e+00 3.723243285181999873e+00 1.903933283538000065e+00 5.759673622192999609e+00 8.030551153220999439e+00 5.788805534827000443e+00 2.020233384502999829e+00 3.769332811807999839e+00 5.858231563057000102e+00 1.861202658235999952e+00 8.036698038571000069e+00 5.766365639510000030e+00 5.762281203097000315e+00 3.735851716932999889e+00 5.890842179706000437e+00 5.976067074647000155e+00 8.051089465499000397e+00
5.338369235800000112e-02 7.777786662549999619e+00 4.622984706500000290e-02 7.754775610364999849e+00 7.709180303766999920e+00 4.344562714207000020e+00 7.605472551692000316e+00 3.917477499748000191e+00 8.478212962422000842e+00 1.315663859460000085e-01 3.722402331346000182e+00 4.249439358258999988e+00 3.917149552413000002e+00 1.172085077560000022e-01 8.400366082468000428e+00 3.894856463651999778e+00 7.761560061439999991e+00 4.268358929161999882e+00 3.738291320219000013e+00 3.882547237518000127e+00 8.491325803976000230e+00 3.969271254055999787e+00 3.972183134214000155e+00 4.120003593516000429e+00 1.955270426323999944e+00 1.979120070655000063e+00 1.971073182150999914e+00 1.949747931369000042e+00 1.956929431595000102e+00 6.233331223601999760e+00 1.956098562822000009e+00 5.866835118120000025e+00 1.952627404547000012e+00 1.926413978258999959e+00 5.769073098466999561e+00 6.267753250356999928e+00 5.883944375731999799e+00 1.945518922071999945e+00 2.030158002190999955e+00 5.810797681120999592e+00 1.983102043429000094e+00 6.272885966962999937e+00 5.826668737548000188e+00 5.850041751728999984e+00 1.941156185822999980e+00 5.868221333848000043e+00 5.846137068530000036e+00 6.239159043672000138e+00 7.785158052999999710e-03 2.044047810458999859e+00 1.758742744991000029e+00 9.421493423900000053e-02 1.858423552272000068e+00 5.772075560668000094e+00 7.759728863806000021e+00 5.687191962602000217e+00 1.643129673273000080e+00 8.614908362900000616e-02 5.833554899385999803e+00 5.985494525688999978e+00 3.893584147971000053e+00 1.887929446520000054e+00 1.617182545246000025e+00 3.904950388075000056e+00 1.906217313373000044e+00 5.972724503488000103e+00 3.882235035729999950e+00 5.998020704752000221e+00 1.649405659257999979e+00 3.960040765448999966e+00 5.765802751668999804e+00 5.846422067044000137e+00 1.809731223880999940e+00 5.756786290500000292e-02 1.651394582390000032e+00 1.915323579268999987e+00 4.591253528300000275e-02 5.790540998827999886e+00 2.070636370963999884e+00 3.947484147738999916e+00 1.732632462211999957e+00 2.003843378042000190e+00 3.880826120081000141e+00 5.901745321153000212e+00 5.942355431866999993e+00 8.506928660000000154e-04 1.629714635582999893e+00 5.794727523917999612e+00 7.725876446178999934e+00 5.916460527118999835e+00 5.778477684250000301e+00 3.834262463232999796e+00 1.438380595156999897e+00 6.016446271601999740e+00 3.836464261815999865e+00 5.914082421554000213e+00 1.953954925024000033e+00 2.084553834310999942e+00 3.722637270523000197e+00 1.991587196830000073e+00 1.996789070543999900e+00 8.033702749022999967e+00 1.953448278745999911e+00 5.938601043970000326e+00 3.735882672848000130e+00 1.899562956006999981e+00 5.775380201734000352e+00 8.026328618455000452e+00 5.811828033687000072e+00 2.027505889532999817e+00 3.804577718902999894e+00 5.883186722057000217e+00 1.886059970407000019e+00 8.029121586286999346e+00 5.718691487592000300e+00 5.743142496542000153e+00 3.710020983343000012e+00 5.875284450178999585e+00 5.964743394997999992e+00 7.998359132075999689e+00
5.755875342700000202e-02 7.771194207087999573e+00 4.895914020799999739e-02 7.746108633334999993e+00 7.691363333055999618e+00 4.347913397556999904e+00 7.582650375190000069e+00 3.916202549792000109e+00 8.465340264578999907e+00 1.421535146840000041e-01 3.705354217371000125e+00 4.243241524089000016e+00 3.918977679991999974e+00 1.288403782389999919e-01 8.384803195051999225e+00 3.891951584195000091e+00 7.751072338171000276e+00 4.264567751020000408e+00 3.720934562817999947e+00 3.879371960562000066e+00 8.477602995937999708e+00 3.976666881027000056e+00 3.978362734021000158e+00 4.105291955349000155e+00 1.941533250466999982e+00 1.939891088545000031e+00 1.966929898349000005e+00 1.939406558141000048e+00 1.970516963357999973e+00 6.214493917613999940e+00 1.948982349028999916e+00 5.860609169680000008e+00 1.981484572095999930e+00 1.912764143558999930e+00 5.784036342072999659e+00 6.286988043930000103e+00 5.847967611860999781e+00 1.960298702618000100e+00 2.017170681676999866e+00 5.818532662494000363e+00 1.996370524600999952e+00 6.268511441242000437e+00 5.830577047300000260e+00 5.878987573250999965e+00 1.960953353744000038e+00 5.853899777091999823e+00 5.821590912216000113e+00 6.228053178285000158e+00 7.750839091877000264e+00 2.066309135751999815e+00 1.743035007945999970e+00 1.038100273389999939e-01 1.840925223488999896e+00 5.795414262068000255e+00 7.755657524709000050e+00 5.695052119918999622e+00 1.678618565247999905e+00 1.000707220670000036e-01 5.823735923924999724e+00 5.957958251208999911e+00 3.922425266766000007e+00 1.871242720499000090e+00 1.650046162263999916e+00 3.911275616535000221e+00 1.862960417518999989e+00 5.976557839736999611e+00 3.857376597176000121e+00 5.968422989186000116e+00 1.668703250572999952e+00 3.974030060957999932e+00 5.741938055480999559e+00 5.836991993050999916e+00 1.827951150864999930e+00 5.914263573600000296e-02 1.633641606492000076e+00 1.955165878544000035e+00 8.088056040200000685e-02 5.787239070431000165e+00 2.054655152258999973e+00 3.973117585624999837e+00 1.736233179305000096e+00 2.014400893048999830e+00 3.863806870028999807e+00 5.893162280620000359e+00 5.937879360190000178e+00 2.084392289000000162e-03 1.667211596008000063e+00 5.833420742040000384e+00 7.718292375318999810e+00 5.901718867238000321e+00 5.781968989303000406e+00 3.819758397774999814e+00 1.482752715921000108e+00 6.003384672162000335e+00 3.785871034073000185e+00 5.877134503368999674e+00 1.944347112006999945e+00 2.084443696684000091e+00 3.739404406835999950e+00 1.973605316765000062e+00 1.982260318762000040e+00 8.030774614706000847e+00 1.957407848019999896e+00 5.932192317510000201e+00 3.747583407246999787e+00 1.914015160358000012e+00 5.805932629035000403e+00 8.038623759935999757e+00 5.832859878884000260e+00 2.027793890611000016e+00 3.830012398096000137e+00 5.909162676787000024e+00 1.909572918045999934e+00 8.018244499711000728e+00 5.692238532602000411e+00 5.726363244794000273e+00 3.686440274396999950e+00 5.852768371376999568e+00 5.919036475911999773e+00 7.956149741195999603e+00