-3.525381917709999834e+04
-3.525330443090000335e+04
-3.525303172980000090e+04
-3.525298927269999695e+04
-3.525308514339999965e+04
-3.525316089059999649e+04
-3.525307250360000035e+04
-3.525296148859999812e+04
-3.525278767299999890e+04
-3.525258908740000334e+04
-3.525291492940000171e+04
-3.525285801869999705e+04
-3.525240646900000138e+04
-3.525225595250000333e+04
-3.525219500819999666e+04
-3.525227988590000314e+04
-3.525220287980000285e+04
-3.525204029840000294e+04
-3.525180774050000036e+04
-3.525169402209999680e+04
-3.525152306600000156e+04
-3.525152911429999949e+04
-3.525113658079999732e+04
-3.525060493799999676e+04
-3.525074777840000024e+04
-3.525122495309999795e+04
-3.525101712810000026e+04
-3.525081222639999760e+04
-3.525081925570000021e+04
-3.525124144749999687e+04
-3.525149322070000198e+04
-3.525175889089999691e+04
-3.525163811669999996e+04
-3.525126786010000069e+04
-3.525145339139999851e+04
-3.525149183520000224e+04
-3.525198211609999998e+04
-3.525219023970000126e+04
-3.525222493280000344e+04
-3.525241392240000278e+04
-3.525253984820000187e+04
-3.525266614169999957e+04
-3.525271156239999982e+04
-3.525283578809999744e+04
-3.525276159880000341e+04
-3.525300638869999966e+04
-3.525309496180000133e+04
-3.525312028950000240e+04
-3.525308779659999709e+04
-3.525305935199999658e+04
-3.525310604759999842e+04
-3.525328393369999685e+04
-3.525331353459999809e+04
-3.525331552930000180e+04
-3.525315623919999780e+04
-3.525307680339999933e+04
-3.525316532239999651e+04
-3.525315843350000068e+04
-3.525327112209999905e+04
-3.525307084320000286e+04
-3.525307337359999656e+04
-3.525299277720000100e+04
-3.525293527739999990e+04
-3.525288715129999764e+04
-3.525283416730000317e+04
-3.525268995749999885e+04
-3.525258500310000090e+04
-3.525244657169999846e+04
-3.525232806410000194e+04
-3.525227983870000025e+04
-3.525211811049999960e+04
-3.525205288160000055e+04
-3.525139402479999990e+04
-3.525120187009999790e+04
-3.525096294270000362e+04
-3.525086396619999869e+04
-3.525113041089999751e+04
-3.525092136970000138e+04
-3.525058928800000285e+04
-3.525055581060000259e+04
-3.525069384390000050e+04
-3.525078350109999883e+04
-3.525079447660000005e+04
-3.525059193110000342e+04
-3.525046175519999815e+04
-3.525084198179999657e+04
-3.525111531049999758e+04
-3.525150116110000090e+04
-3.525136288739999873e+04
-3.525179835050000111e+04
-3.525196038789999875e+04
-3.525198491630000353e+04
-3.525231082910000259e+04
-3.525239291029999731e+04
-3.525233394550000230e+04
-3.525253728419999970e+04
-3.525265420309999899e+04
-3.525264204780000000e+04
-3.525288828120000107e+04
-3.525303443110000080e+04
-3.525302844699999696e+04
-3.525296787290000066e+04
-3.525305928799999674e+04
-3.525311905129999650e+04
-3.525300845590000245e+04
-3.525307236189999821e+04
-3.525319202850000147e+04
-3.525329725879999751e+04
-3.525312687140000344e+04
-3.525321668479999789e+04
-3.525323427790000278e+04
-3.525306714859999920e+04
-3.525303425869999774e+04
-3.525315618279999762e+04
-3.525320062000000325e+04
-3.525296472219999850e+04
-3.525278824970000278e+04
-3.525295046980000188e+04
-3.525295981909999682e+04
-3.525270775889999641e+04
-3.525276449349999893e+04
-3.525275956730000325e+04
-3.525255661870000040e+04
-3.525206455160000041e+04
-3.525200465689999692e+04
-3.525205066880000231e+04
-3.525185749200000282e+04
-3.525161592199999723e+04
-3.525163058019999880e+04
-3.525136883030000172e+04
-3.525072055440000258e+04
-3.525092269720000331e+04
-3.525072813109999697e+04
-3.525085371160000068e+04
-3.525066465910000261e+04
-3.525052289800000290e+04
-3.525057093200000236e+04
-3.525049477189999743e+04
-3.525096251830000256e+04
-3.525073250510000071e+04
-3.525099483129999862e+04
-3.525109739370000170e+04
-3.525120992269999988e+04
-3.525127162320000207e+04
-3.525128862849999859e+04
-3.525173120629999903e+04
-3.525206756190000306e+04
-3.525244796959999803e+04
-3.525243782800000190e+04
-3.525248268919999828e+04
-3.525248995399999694e+04
-3.525257484490000206e+04
-3.525285422680000192e+04
-3.525288244359999953e+04
-3.525288344099999813e+04
-3.525288236350000079e+04
-3.525306096000000252e+04
-3.525321005449999939e+04
-3.525328678100000252e+04
-3.525310793600000034e+04
-3.525309610329999850e+04
-3.525320201700000325e+04
-3.525322563580000133e+04
-3.525324552569999651e+04
-3.525315537190000032e+04
-3.525324544120000064e+04
-3.525320378809999966e+04
-3.525312475760000234e+04
-3.525311152469999797e+04
-3.525313887919999979e+04
-3.525299343699999736e+04
-3.525287248779999936e+04
-3.525290679870000167e+04
-3.525287501190000330e+04
-3.525268319450000126e+04
-3.525265420560000348e+04
-3.525270302310000261e+04
-3.525259528059999866e+04
-3.525223407849999785e+04
-3.525197186569999758e+04
-3.525197779540000192e+04
-3.525181597139999940e+04
-3.525181580450000183e+04
-3.525170429080000031e+04
-3.525126666700000351e+04
-3.525103214119999757e+04
-3.525102735289999691e+04
-3.525080686129999958e+04
-3.525114693239999906e+04
-3.525120735599999898e+04
-3.525100820910000039e+04
-3.525039181159999862e+04
-3.525020850670000073e+04
-3.525089738219999708e+04
-3.525095733879999898e+04
-3.525086879230000341e+04
-3.525116036539999914e+04
-3.525151817509999819e+04
-3.525164460010000039e+04
-3.525150082989999646e+04
-3.525203706470000179e+04
-3.525196328190000349e+04
-3.525201379029999953e+04
-3.525215930929999740e+04
-3.525232053940000333e+04
-3.525257616080000298e+04
-3.525275096640000265e+04
-3.525283400399999664e+04
-3.525278607390000252e+04
-3.525297020869999687e+04
-3.525302973809999821e+04
-3.525296457650000229e+04
-3.525295112740000332e+04
-3.525309486589999869e+04
-3.525312108940000326e+04
-3.525311698530000285e+04
-3.525321444460000203e+04
-3.525330759699999908e+04
-3.525318908219999867e+04
-3.525310779119999643e+04
-3.525317815210000117e+04
-3.525304534319999948e+04
-3.525315520609999658e+04
-3.525313537190000352e+04
-3.525302357009999832e+04
-3.525288535029999912e+04
-3.525294385740000143e+04
-3.525289070879999781e+04
-3.525272622509999928e+04
-3.525265547269999661e+04
-3.525250700420000067e+04
-3.525237805710000248e+04
-3.525220689839999977e+04
-3.525226598299999750e+04
-3.525218877420000354e+04
-3.525202484980000008e+04
-3.525193790299999819e+04
-3.525160496989999956e+04
-3.525155852549999690e+04
-3.525137699889999931e+04
-3.525147228480000194e+04
-3.525124344209999981e+04
-3.525080205299999943e+04
-3.525108408739999868e+04
-3.525090689920000295e+04
-3.525082147460000124e+04
-3.525047849110000243e+04
-3.525074521470000036e+04
-3.525121808359999704e+04
-3.525091717749999953e+04
-3.525128466420000041e+04
-3.525126250319999963e+04
-3.525131833660000120e+04
-3.525185191520000080e+04
-3.525207747440000094e+04
-3.525202380209999683e+04
-3.525207598709999729e+04
-3.525205754380000144e+04
-3.525234025459999975e+04
-3.525239729300000181e+04
-3.525257231360000151e+04
-3.525266440600000351e+04
-3.525272069380000175e+04
-3.525280716479999683e+04
-3.525292300110000360e+04
-3.525300470199999836e+04
-3.525298209949999728e+04
-3.525301486809999915e+04
-3.525306888669999898e+04
-3.525314578089999850e+04
-3.525319822150000255e+04
-3.525331479209999816e+04
-3.525311429379999754e+04
-3.525319815879999805e+04
-3.525317742970000108e+04
-3.525307059960000333e+04
-3.525318334660000255e+04
-3.525306434859999717e+04
-3.525297050740000122e+04
-3.525291691970000102e+04
-3.525285991829999693e+04
-3.525295875689999957e+04
-3.525273004480000236e+04
-3.525270639410000149e+04
-3.525251857939999900e+04
-3.525250526309999987e+04
-3.525237824969999929e+04
-3.525209048690000054e+04
-3.525216279999999824e+04
-3.525194908020000003e+04
-3.525182977899999969e+04
-3.525195215289999760e+04
-3.525158192509999935e+04
-3.525117902239999967e+04
-3.525109453180000128e+04
-3.525133184389999951e+04
-3.525093173199999728e+04
-3.525147739330000331e+04
-3.525114494160000322e+04
-3.525080517010000040e+04
