-1.105880288700000075e-02 -1.033001267099999988e-02 -1.094336267499999987e-01 -4.947387459699999906e-02 -2.079118149999999859e-02 -1.073091965190000052e-01 3.472374717699999724e-02 1.103128144500000081e-02 -5.894132840699999737e-02 -3.792624883799999846e-02 4.017285853199999840e-02 -1.349765821139999877e-01 1.701878202899999998e-02 -7.660913524800000429e-02 -1.288914297129999942e-01 5.651908974500000071e-02 1.010867352699999951e-02 -9.558086799600000460e-02 1.050378235799999914e-02 6.071472837200000278e-02 -9.742767897199999805e-02 2.177674553999999971e-02 -5.621225133000000429e-03 -1.064433088750000034e-01 -1.390751889229999982e-01 4.855647064000000179e-02 3.198282187459999815e-01 3.931361870399999875e-02 -2.233465440500000121e-02 -3.073663355230000227e-01 4.976548301000000007e-03 -9.821264401300000557e-02 -6.544898635899999706e-02 7.188000604999999696e-03 9.964851703200000577e-02 2.517285143619999999e-01 1.013834957869999970e-01 -3.775430907000000037e-03 1.589258984820000054e-01 -5.219255525500000187e-02 -1.108942178080000035e-01 1.742238683599999990e-02 1.047342015300000047e-02 7.124977892000000125e-03 3.156669120830000175e-01 3.058562926700000156e-02 9.453576336199999430e-02 -1.564759710200000140e-02 5.889184034699999903e-02 -8.480799169100000645e-02 1.217038318600000002e-02 1.296564122609999981e-01 2.577906063499999997e-02 -1.525857928599999927e-02 2.298533837999999861e-03 -3.042743295500000000e-02 2.340229449400000120e-02 -1.395983914220000066e-01 -4.706971245899999740e-02 7.639144966199999665e-02 -8.022239890299999454e-02 2.461768005899999875e-02 -2.112962372500000116e-02 -2.171127359699999981e-01 -7.102420291999999614e-03 6.472753558700000687e-02 2.592147993499999831e-02 4.332710880000000203e-04 2.748717799700000144e-02 -1.029169151310000002e-01 -3.139821212899999991e-02 2.539142232299999857e-02 -3.512373861899999866e-02 7.258263719999999766e-04 1.991607341799999861e-02 -1.775817167000000047e-03 1.290463321360000026e-01 -2.145296532799999961e-02 3.549176059200000177e-02 -1.153283978839999974e-01 2.671417566000000056e-03 7.580599925799999528e-02 -2.888358770700000244e-01 6.553771706800000374e-02 -8.998226906999999206e-03 1.835749209979999907e-01 -5.086362856900000090e-02 4.066677193599999712e-02 2.895068031000000083e-02 7.114330306100000167e-02 -2.611312256000000026e-03 3.781795151600000210e-02 -9.063445058800000120e-02 1.500863797399999977e-01 7.480185018399999886e-02 -2.579052597499999905e-02 -3.175829074400000201e-02 5.555344358300000340e-02 -2.568412684160000237e-01 4.428636750099999853e-02 5.491479864399999994e-02 2.726138858450000146e-01 -3.017281608999999865e-03 6.789447909399999592e-02 1.177166810440000017e-01 -5.324728645000000385e-03 -2.706406545000000167e-03 -1.018164860920000026e-01 1.997027104699999889e-02 -1.273317447400000059e-02 2.782959612899999977e-02 -1.819667919999999920e-04 -8.135016624999999793e-03 1.586467115870000000e-01 -1.463693487100000030e-02 -5.495887600700000153e-02 -1.536870646190000023e-01 1.546673341400000082e-02 -2.393154560400000130e-02 -6.427604854599999751e-02
-3.492038384699999720e-02 1.973155767000000019e-02 -1.555952324990000080e-01 -2.620308845129999953e-01 -9.513282246000000220e-02 -1.955129741849999936e-01 2.348626354389999893e-01 -1.858243815900000040e-02 1.106098490700000020e-01 -2.147748059329999959e-01 2.301452830210000133e-01 -3.773446676089999841e-01 4.611154777300000007e-02 -3.420170292090000119e-01 -2.509739941549999909e-01 2.683969332410000019e-01 4.607390146899999900e-02 -1.150384548680000035e-01 2.914037640000000096e-02 2.511349490009999741e-01 -7.721432167500000276e-02 1.276002975880000112e-01 -3.566745713000000345e-02 -1.566047892759999949e-01 -7.224214949330000080e-01 2.420148035920000051e-01 8.897829208569999482e-01 1.938439932980000058e-01 -1.870700123129999948e-01 -1.371246080409000090e+00 3.617032681000000027e-02 -5.163054535559999936e-01 -4.099759906620000227e-01 8.773808924999999467e-03 7.202519939589999698e-01 8.488811207140000148e-01 5.267906600620000379e-01 2.396316625500000130e-02 5.025352495329999947e-01 -3.077192227109999956e-01 -5.407812952749999624e-01 2.583187138799999949e-02 5.934828475299999684e-02 3.590222192700000259e-02 1.095174703987999987e+00 1.421223570690000049e-01 4.811146745300000083e-01 -2.956336673450000174e-01 1.338992193940000131e-01 -4.859983729880000269e-01 4.812039641899999720e-02 4.993085309399999949e-01 1.210471182139999935e-01 -1.870377391939999911e-01 4.910422530499999882e-02 -1.608165441269999996e-01 1.175826148739999993e-01 -5.757497737169999796e-01 -2.931803025229999804e-01 4.067868861200000241e-01 -2.639530595669999924e-01 1.684198294950000063e-01 -1.243027623410000032e-01 -8.580368534619999821e-01 -1.315897999179999889e-01 2.567379604830000162e-01 1.077198180020000062e-01 2.028269142900000072e-02 1.479419736960000120e-01 -5.985442157920000117e-01 -1.825484543539999949e-01 6.431849247399999692e-02 -1.954282781320000051e-01 -2.192443874549999949e-01 5.378801740800000231e-02 -3.822260604899999775e-02 4.929412726749999862e-01 -1.768777108269999898e-01 1.886295571890000133e-01 -4.138303312059999906e-01 -1.668593961400000047e-02 4.552993991820000197e-01 -1.387586478690000069e+00 2.655579528479999896e-01 -6.192237867900000220e-02 9.553890832979999859e-01 -2.972589915730000087e-01 2.337557746539999926e-01 2.223632701880000062e-01 3.944363272929999886e-01 1.269645035799999919e-02 2.348391894050000095e-01 -4.978376010919999817e-01 7.713804756900000115e-01 2.866678991530000054e-01 -1.349044186539999912e-01 -2.310844916700000029e-01 3.490949429569999984e-01 -8.817326530419999919e-01 2.352922927870000069e-01 3.005111284120000059e-01 9.896548979289999659e-01 -2.151241449499999986e-02 3.946226817860000180e-01 3.334544806509999737e-01 -4.298048361399999656e-02 -2.748204294299999920e-02 -4.429488419490000273e-01 1.208638576380000051e-01 -8.285354161100000336e-02 1.573902128230000030e-01 1.105412143999999919e-03 -2.049283770999999962e-02 4.530097068000000227e-01 -1.128878203530000041e-01 -3.207458818669999823e-01 -5.750087228050000387e-01 5.997293282700000283e-02 -1.345861749420000086e-01 -4.218600815940000137e-01
1.874800169799999833e-02 2.559885426360000160e-01 -1.729946235329999915e-01 -3.530191726990000167e-01 -8.302656209400000042e-02 -3.324483101810000174e-01 4.563311655400000277e-01 -2.563298142489999765e-01 1.798137065829999992e-01 -2.805761043300000201e-01 3.613841815689999848e-01 -5.219845340069999562e-01 -3.566971803800000201e-02 -2.770855954650000008e-01 -2.329208728849999910e-01 3.297379457999999874e-01 5.756060135200000150e-02 -2.092155474640000068e-01 -1.038816766000000107e-03 1.313528007660000052e-01 -6.759235338400000626e-02 1.196883198149999994e-01 -6.661832162500000432e-02 -1.322612880809999891e-01 -1.013545637528000087e+00 2.565069519579999957e-01 -2.590356498399999999e-02 1.433917121880000090e-01 8.541975638399999793e-02 -1.247298294410000008e-01 1.097645570670000015e-01 -7.348090125580000187e-01 -6.150626976200000012e-02 -1.226767453840000022e-01 6.151673944859999965e-01 4.943103852360000161e-01 6.095452149950000287e-01 1.469334352689999901e-01 5.485931481510000207e-01 -3.853043412009999891e-01 -6.163159744049999667e-01 4.132154282139999801e-01 7.676279310000000411e-02 1.408324594739999991e-01 8.083928594350000552e-01 1.620491649270000001e-01 5.987305195169999594e-01 -3.610674656719999875e-01 -1.311100389529999966e-01 -6.507973663799999642e-01 1.445611836379999959e-01 6.629364146299999982e-02 7.739946679499999649e-02 -3.195238007549999759e-01 3.585095640199999906e-02 -2.113603061600000110e-01 2.359749031470000091e-01 -4.345959415660000102e-01 -4.602545244730000262e-01 6.414153689479999976e-01 4.107322432999999627e-03 2.521405135450000001e-01 -8.669458973900000254e-02 -3.523265038239999924e-01 -2.303683360650000123e-01 2.789389198539999892e-01 1.389144407669999914e-01 6.043088025199999658e-02 2.872554623290000109e-01 -7.165812498300000444e-01 -2.215378694809999882e-01 3.275238433799999849e-02 -2.829254975289999807e-01 -6.685145209210000550e-01 1.057118435929999961e-01 -1.558516748719999956e-01 7.232903647999999741e-03 -3.718574525550000232e-01 2.317882177170000058e-01 -1.136096386469999941e-01 3.277828629500000035e-02 6.274285888139999878e-01 -9.092994168079999717e-01 4.101101673220000077e-01 -8.949541423800000395e-02 8.156344055669999538e-01 -3.573432332620000151e-01 2.929364099510000097e-01 3.759300267260000106e-01 5.498050510540000158e-01 6.750948848799999402e-02 4.007829802890000015e-01 -6.750522992040000059e-01 9.974183617330000251e-01 3.880052964300000073e-02 -2.639332500800000147e-01 -3.450004448780000232e-01 4.514623972660000151e-01 -2.022970592770000076e-01 3.603353297870000027e-01 3.867385107849999892e-01 -2.588926509999999945e-02 -7.030891598699999523e-02 5.696730642470000383e-01 3.800946315900000094e-02 -1.118595893649999978e-01 -2.113859548000000116e-02 -2.227388908260000133e-01 1.702267097769999959e-01 -1.219123340180000015e-01 4.304032192769999821e-01 1.930001337099999936e-02 5.769179728300000143e-02 -8.161999672299999342e-02 -2.167288772610000136e-01 -3.594070271909999836e-01 -1.657110871359999960e-01 6.048632841999999898e-02 -1.414089034369999942e-01 -6.167561965229999554e-01
1.052851822530000009e-01 4.547192721519999759e-01 -1.932387761959999950e-01 -3.051152979719999880e-01 -1.622537177000000011e-02 -3.426608400510000041e-01 5.851102407880000023e-01 -4.640807033950000160e-01 1.154407172180000052e-01 -2.510778584550000248e-01 3.953056242990000135e-01 -3.638441401160000255e-01 -1.546394983509999932e-01 -8.569478120399999510e-02 -1.038918099549999974e-01 2.775190946539999870e-01 9.073604794600000079e-02 -2.587050232399999983e-01 2.188341224099999913e-02 -8.724003584799999711e-02 -1.407023854920000094e-01 3.748836955899999962e-02 -1.318405229190000028e-01 5.071907243399999959e-02 -9.206655440230000487e-01 -1.620914927899999927e-02 -1.336575105160000110e+00 -1.969163592529999951e-01 7.231379864279999792e-01 1.070219788836999975e+00 1.854935170589999960e-01 -7.152668150090000232e-01 4.226512870879999828e-01 -3.402237220709999899e-01 2.014505889099999988e-02 -4.042340192519999764e-01 3.153408123270000085e-01 4.932431889150000193e-01 6.804149899950000524e-01 -1.988785103069999893e-01 -3.522581684939999902e-01 4.831513604429999997e-01 6.307652259399999795e-02 2.336628195040000022e-01 -1.933814909400000115e-01 6.393632788099999631e-02 3.832886518749999971e-01 -6.518803378849999941e-01 -2.379290370119999942e-01 -5.132802829560000335e-01 1.871264239310000133e-01 -4.732143534120000217e-01 -8.797679677399999898e-02 -3.709851035200000258e-01 -1.542260286450000129e-01 -1.709473213499999866e-01 2.566938149860000240e-01 -6.137550619099999688e-02 -4.597560744950000000e-01 5.939578246100000181e-01 1.585620082610000037e-01 2.183364759810000055e-01 4.876496520399999784e-02 6.932287810789999893e-01 -2.589926064409999729e-01 1.600634425659999971e-01 1.864863536280000067e-01 9.821818483800000277e-02 3.282895578569999806e-01 -2.201856585170000047e-01 -1.571080543320000078e-01 -6.061974121199999871e-02 -2.329684851899999909e-01 -5.416992141880000444e-01 1.248351334749999986e-01 -2.856936588639999997e-01 -8.048331570779999611e-01 -5.262110918400000337e-01 9.765137785300000151e-02 1.901779525089999923e-01 1.399550874759999952e-01 5.214543566970000210e-01 4.127775638760000088e-01 3.125813459360000102e-01 -6.232025928300000128e-02 -9.826978666499999737e-02 -2.967786232060000140e-01 1.274017792630000034e-01 1.676621264150000012e-01 4.884764538829999836e-01 2.293918755309999891e-01 2.997842533680000199e-01 -6.017331643750000181e-01 7.573509219039999962e-01 -2.450160228809999952e-01 -4.101244563920000141e-01 -3.770826157080000018e-01 3.202004253040000026e-01 6.871041636379999762e-01 3.453370142450000180e-01 2.252046497799999880e-01 -7.243806792320000021e-01 -1.272870907080000114e-01 5.572103568420000430e-01 -1.734477626339999967e-01 -1.798652642099999865e-01 2.694352795599999975e-02 4.803142211179999843e-01 1.759727006940000060e-01 -8.639663113300000141e-02 3.561802970710000182e-01 5.049097605399999883e-02 1.449094792229999873e-01 -3.892217470859999917e-01 -2.639045847190000238e-01 -1.548678034100000045e-01 7.497069066649999503e-01 4.510770833299999893e-02 -7.704346479999999754e-03 -1.940305566470000020e-01
9.525463014700000230e-02 3.217157238250000217e-01 -2.381730952680000124e-01 -1.927784303889999995e-01 1.593505272000000049e-03 -2.060350454179999957e-01 5.300244273390000149e-01 -3.633199572090000107e-01 -7.695671733700000516e-02 -2.875107147950000108e-01 3.617823863369999948e-01 -3.165821712800000187e-02 -1.612136637019999930e-01 -7.293158955299999802e-02 2.675349707599999904e-02 1.755354053079999921e-01 1.338046344970000023e-01 -2.131196925930000097e-01 1.669304045780000134e-01 -1.003046436569999950e-01 -3.435726943910000220e-01 2.285405443799999950e-02 -2.180711757999999889e-01 3.040751515430000218e-01 -4.991803359959999797e-01 -4.107368585560000063e-01 -9.661397965489999518e-01 -4.265957102819999958e-01 8.002826758790000383e-01 6.848587866069999475e-01 1.452152293960000118e-01 -5.635829216650000140e-01 4.787976955000000090e-01 -5.824926700410000269e-01 -2.457672107980000131e-01 -4.770944359470000173e-01 -2.414809668560000122e-01 8.202403673860000355e-01 8.604565834320000439e-01 -1.127963383600000084e-02 1.671192573480000110e-01 3.692297596300000290e-02 1.035424436549999966e-01 3.944078109799999954e-01 -4.206841403639999810e-01 -8.401851627199999339e-02 -9.245609853899999786e-02 -1.078347652855000005e+00 8.535822490899999671e-02 -2.188358138819999910e-01 1.181535212450000039e-01 -1.382555759040000054e-01 -2.324206148209999878e-01 -2.753938772039999927e-01 -3.248894688200000269e-01 -8.684456660700000385e-02 1.972731098019999962e-01 3.980496993650000093e-01 -2.228335870589999990e-01 2.587396989080000265e-01 -8.658282566599999341e-02 1.144684641890000021e-01 2.119717933270000021e-01 9.060889363080000258e-01 -3.211816699419999810e-01 4.351297849500000009e-02 1.859797457609999871e-01 9.534138408099999962e-02 2.879650344720000033e-01 5.200244672630000009e-01 -1.022987601140000063e-01 -1.588552012049999906e-01 -4.753495597199999811e-02 3.137186418330000226e-01 3.643622705999999961e-02 -3.577909457410000105e-01 -5.331792824109999884e-01 -4.529560122979999770e-01 -1.108783869559999968e-01 3.764640294999999776e-02 2.486182122800000005e-01 1.965613885190000132e-01 1.049453695995999913e+00 7.072297670100000100e-02 -4.652016418800000025e-02 -8.600026745059999866e-01 -1.695858450180000032e-01 -8.328507809900000114e-02 -4.571544572799999817e-01 2.683467652789999769e-01 3.919317200990000138e-01 -1.548332973350000086e-01 -3.372242818730000202e-01 2.857462902680000250e-01 -1.930579835690000023e-01 -4.637886883430000218e-01 -3.384030392560000156e-01 1.605565313760000112e-01 8.870224733499999792e-02 1.500485854030000066e-01 -1.209303116900000037e-02 -2.795025064630000111e-01 -1.337857291860000131e-01 3.329309318859999811e-01 3.061383075000000120e-03 -1.871537681519999941e-01 6.226405547799999940e-02 6.963996770270000081e-01 1.908576967099999966e-01 -1.379575838699999973e-02 -1.685926112610000027e-01 8.854799314399999788e-02 1.801124922160000086e-01 1.239879082600000015e-01 -2.900451737590000190e-01 6.701859642999999714e-03 8.287927020919999554e-01 -6.875588745000000244e-03 1.215611316850000040e-01 4.831315860390000272e-01
-7.970779123599999738e-02 -3.167619164800000026e-02 -2.416620407489999955e-01 -6.641025061600000501e-02 -4.502682312700000133e-02 -1.251939189169999911e-01 3.515869832579999743e-01 -4.387096144400000342e-02 -2.706956812679999769e-01 -3.953394151499999842e-01 3.744157482250000113e-01 1.905581624930000051e-01 2.136223430899999998e-02 -2.233142189619999884e-01 1.919719082740000138e-01 7.743450559999999483e-02 7.474359236300000264e-02 -1.561762833510000059e-01 3.784740965899999754e-01 6.931070926000000576e-02 -5.163080340229999621e-01 6.759134660000000461e-02 -1.953115982330000111e-01 4.750740069170000246e-01 -5.153047396399999813e-02 -7.310493530080000024e-01 2.367804574819999952e-01 -3.067370486709999899e-01 4.771829111700000015e-01 -6.521492494439999899e-01 -3.844309721400000074e-02 -1.774746851740000020e-01 1.588836820129999883e-01 -5.905157757490000492e-01 -1.812706353499999867e-01 4.961712473639999788e-01 -7.427916546570000333e-01 4.535511508430000172e-01 4.057112204069999728e-01 1.732603815440000028e-01 5.851293749549999479e-01 -1.881546930019999952e-01 2.180226001270000047e-01 6.260000578080000544e-01 3.466493231439999878e-01 -1.346081805050000080e-01 -4.889071889220000244e-01 -5.656934088489999901e-01 3.286783382819999932e-01 1.041490713179999972e-01 -1.364150649299999962e-02 6.775525355220000101e-01 -2.676615662530000272e-01 -3.700623752900000091e-02 -1.447661377560000018e-01 -7.846082259999999711e-04 1.837022260639999960e-01 7.262023545910000211e-01 6.612580076099999760e-02 -1.395274122900000136e-01 -1.995642939160000018e-01 -8.053802094999999717e-03 2.957740328319999890e-01 -3.444868730100000137e-02 -3.243685354420000055e-01 -1.605719391899999848e-02 -5.770197533600000123e-02 -3.665886091000000041e-02 2.294841738420000110e-01 7.880057989409999797e-01 -6.976679293099999346e-02 -1.876140628690000089e-01 1.268837062929999981e-01 7.840216081690000172e-01 -8.244414249800000039e-02 -2.333190476170000083e-01 5.947115361920000121e-01 -1.688099132080000120e-01 -3.127422338199999929e-01 -7.987764071300000601e-02 2.420643638240000117e-01 -8.737780411899999378e-02 5.203814680180000041e-01 -7.256905064999999433e-02 -6.569761207799999780e-02 -5.487374054350000474e-01 8.540711944399999311e-02 -1.118031526210000043e-01 -8.135720641139999598e-01 -2.185646479999999933e-02 4.178610750869999890e-01 -6.379750784450000101e-01 7.163638764400000192e-02 -1.976258012769999961e-01 -1.456517728969999870e-01 -3.863895797710000246e-01 -2.090125248320000018e-01 3.201945988100000223e-02 -7.458649158179999628e-01 -7.010308722199999620e-02 -1.493666642389999966e-01 4.802153479699999838e-01 -6.243981781499999967e-02 -2.071691723499999999e-02 2.810560238800000055e-01 -8.806047520800000528e-02 9.546233905100000305e-02 3.099230371999999942e-03 1.817214517749999869e-01 2.923189522199999904e-02 -4.365571041649999873e-01 1.294202393620000058e-01 1.999916033259999948e-01 5.329245422030000068e-01 -2.696601543259999900e-01 4.997324521600000208e-02 -8.027525290400000513e-02 -1.136511548720000042e-01 8.469179302399999776e-02 1.974826903470000006e-01
-2.639375687639999857e-01 -2.285989875349999922e-01 -1.842088234969999905e-01 1.225461604360000012e-01 -1.112540720839999969e-01 -1.801868003050000056e-01 2.207200423629999964e-01 1.405945270039999917e-01 -2.922354687090000236e-01 -4.351219707580000207e-01 4.702431013050000219e-01 1.690718146169999936e-01 2.145124365159999935e-01 -3.089643133309999956e-01 4.102099386859999752e-01 -5.510709901599999960e-02 -1.222355319729999945e-01 -1.181361920109999936e-01 5.242433597419999813e-01 1.557597215769999932e-01 -4.219644986789999885e-01 5.535892722500000002e-02 -3.124483024800000022e-02 4.962807533390000136e-01 1.757197353820000030e-01 -9.349607505450000522e-01 6.303114327669999684e-01 -2.679219070669999758e-01 1.435667244340000093e-01 -1.046850004626000086e+00 -2.242377930530000119e-01 3.310089426169999793e-01 8.326580428799999767e-02 -2.997782242670000152e-01 2.541374495159999802e-01 1.035256993558000049e+00 -7.976015100359999943e-01 -5.340899410399999742e-02 -8.481612749179999744e-01 5.310504956899999573e-01 5.513089662040000505e-01 2.131211565960000054e-01 2.662069069849999914e-01 5.753340067029999449e-01 6.858896639310000376e-01 -9.258154379800000167e-02 -5.811518808719999818e-01 3.947956800660000209e-01 -3.989712221899999883e-02 3.100588546679999835e-01 -1.438705910039999869e-01 7.870081650319999955e-01 -1.935329575159999982e-01 2.452455361360000030e-01 2.338320634559999944e-01 1.028617782860000024e-01 1.920596916189999948e-01 5.770058021230000112e-01 2.259901392610000059e-01 -4.031558790459999764e-01 1.227638530009999979e-01 -1.343464101569999958e-01 2.484581189750000030e-01 -7.299764086029999488e-01 -1.864503597570000004e-01 -1.211483440270000045e-01 -4.187877260100000276e-01 -2.586400810819999840e-01 1.259260208100000111e-01 3.424609829799999949e-01 -2.735155680000000067e-04 -1.068861141110000051e-01 2.869603884890000178e-01 3.299792285609999820e-01 -1.280571325550000084e-01 1.323408163660000081e-01 1.118450830193000067e+00 1.440498777230000138e-01 -3.189652205829999754e-01 2.993007101679999726e-01 7.916430903500000504e-02 -1.928546939570000007e-01 -4.414108973399999969e-01 -1.883330258850000050e-01 -6.730225872900000295e-02 1.117499663980000002e-01 3.894722720029999974e-01 5.057873865999999718e-02 -2.619163785360000274e-01 -2.380879873669999869e-01 2.244376800489999990e-01 -5.586944916910000503e-01 5.215500387039999630e-01 -4.993708574130000244e-01 -4.063002701269999850e-01 -2.164953538480000050e-01 1.403344116999999912e-03 -1.201961960549999958e-01 -3.964452983349999737e-01 -2.204087681209999927e-01 -2.060904803049999900e-01 3.468521718950000055e-01 4.333073744100000152e-02 -3.016195590169999940e-01 1.831724919559999942e-01 9.591472349000000619e-02 1.589259627019999899e-01 -4.857857476820000020e-01 1.037164539420000059e-01 4.111549796100000265e-02 1.389219643630000001e-01 1.337903826150000086e-01 2.020438525180000000e-01 -5.657422529799999850e-02 -1.367176362570000081e-01 6.907568114199999498e-02 -5.967693294570000084e-01 -1.853338874509999901e-01 -1.502149833739999940e-01 -5.597236397070000091e-01
-3.009332907889999964e-01 -1.670436551089999888e-01 -1.181766122289999998e-01 3.308218360849999873e-01 -1.058335286719999935e-01 -2.978907912170000172e-01 2.775795677339999989e-01 9.175847864099999363e-02 -1.486536643559999982e-01 -3.828063912520000001e-01 5.368486376550000161e-01 -3.126421831400000295e-02 2.113149774080000098e-01 -2.618671934440000015e-01 5.657377696190000194e-01 -2.065012603689999893e-01 -2.395126311209999914e-01 -5.450160685799999849e-02 4.915238623420000175e-01 8.584591682900000187e-02 -1.235563133430000043e-01 -5.922583570699999772e-02 5.322632599999999742e-02 4.383401468590000238e-01 2.368640497249999977e-01 -7.085718910330000009e-01 1.667686495050000051e-01 -1.563444485059999889e-01 -2.050651486700000026e-01 -3.594495834259999745e-01 -2.486909089949999874e-01 4.241438109319999872e-01 4.266755366609999989e-01 5.783192771600000059e-02 6.756045657589999642e-01 5.160354109360000274e-01 -6.056383209219999841e-01 -1.581613824750000008e-01 -1.482760416390999980e+00 5.178790471459999711e-01 2.982720454309999991e-01 1.359242734870000080e-01 1.359999098520000005e-01 3.055464744179999803e-01 4.751024541180000060e-01 -1.899055123449999993e-01 -4.726748647499999789e-01 7.098885831810000102e-01 -5.212958684439999990e-01 3.354227237940000106e-01 -2.830901890210000271e-01 3.777031837400000175e-02 7.002351349999999530e-02 4.887836509219999903e-01 3.064268903669999933e-01 2.839283941619999974e-01 8.857285978899999412e-02 -5.855485832699999782e-02 1.813864787670000089e-01 -5.201533730999999827e-01 4.653364767440000271e-01 -1.793012857329999987e-01 1.115904526629999949e-01 -3.272131561109999920e-01 4.490043091000000056e-03 -1.749166286649999902e-01 -3.883644641289999977e-01 -3.881170568880000227e-01 -8.189564853099999542e-02 -1.539865888330000099e-01 6.107052575500000052e-02 4.770362686699999855e-02 3.408676304489999809e-01 -2.984053298430000001e-01 -1.786159701420000079e-01 5.485526442179999851e-01 5.294768541809999896e-01 3.875449279059999808e-01 -1.616270891019999933e-01 4.812553187320000037e-01 -2.217512079360000055e-01 -1.842254310389999927e-01 -6.681277605750000070e-01 -2.272455353420000101e-01 -4.156903498799999902e-02 2.993223550079999740e-01 4.428740224769999734e-01 2.984916454950000131e-01 4.720297125340000011e-01 -3.669424891099999919e-01 -1.294083146349999935e-01 -8.816404724000000484e-03 8.032044008369999544e-01 -5.657863083370000545e-01 -4.598351927220000190e-01 1.996560287300000111e-02 2.095884215849999899e-01 -2.628969672770000154e-01 5.463415436090000021e-01 -3.023726321549999874e-01 -2.054781854859999979e-01 -2.474889520599999893e-01 1.204666271590000004e-01 -4.036469891789999931e-01 -1.024365307809999986e-01 2.812347519080000136e-01 2.385796250330000090e-01 -2.374152468719999964e-01 2.208869599699999839e-02 7.005818910000000512e-04 5.695407960289999849e-01 9.289424393700000671e-02 1.120998581059999971e-01 -5.346022791490000481e-01 1.591171708799999918e-01 7.456757690500000202e-02 -5.576275866309999829e-01 -1.582009801370000135e-01 -4.222443494249999985e-01 -5.901598648670000058e-01
-2.711048770400000252e-01 -7.851815710000000252e-04 -7.723478287000000442e-02 4.230780197319999880e-01 5.827556560899999766e-02 -3.640914811529999962e-01 4.337250641190000255e-01 -3.390579663800000199e-02 9.556023285400000455e-02 -3.272870509890000168e-01 4.852494290220000228e-01 -2.592544062470000243e-01 7.927503137600000471e-02 -1.869333459120000041e-01 5.747831238870000359e-01 -2.428386387049999984e-01 -1.106562974259999999e-01 7.132755307900000286e-02 3.622242176739999819e-01 2.513272680800000131e-02 1.606013917599999896e-01 -2.180031597700000101e-01 -9.969795004900000590e-02 3.889047506580000091e-01 1.746078385369999875e-01 -7.539933428299999685e-02 -6.060639879799999824e-02 3.461014592100000176e-01 -3.707074076229999737e-01 2.295963989070000100e-01 -1.232099674070000067e-01 1.753472253460000019e-01 6.354249453270000014e-01 6.495393262419999481e-01 5.704740308239999447e-01 -6.570714863469999667e-01 -4.347061838819999968e-01 -7.319048201000000198e-02 -4.133450877889999764e-01 5.837961100800000136e-02 -2.514898392909999947e-01 -8.622925857890000323e-01 -1.018393001590000013e-01 1.731906986399999945e-02 -1.120642327799999949e-01 -3.939983773019999913e-01 -1.937841829620000067e-01 9.938949968000000690e-02 -1.990344678909999887e-01 1.969121443019999917e-01 -4.250734241449999895e-01 -1.014462647990000077e+00 3.471975496949999962e-01 4.895763672599999783e-01 -2.854161246000000082e-02 4.296621078399999738e-01 -1.783013387690000062e-01 -8.571511538249999562e-01 6.522355358799999947e-02 -4.831991909850000266e-01 2.176160613389999943e-01 -1.098159596339999960e-01 -7.961411916600000249e-02 4.707998962889999861e-01 1.678165615389999865e-01 -1.068972516460000022e-01 1.273717573819999893e-01 -3.251121849749999959e-01 -3.840024259709999832e-01 -4.295485717609999754e-01 7.397218541899999722e-02 2.043661396479999892e-01 2.657728524749999877e-01 -3.708989079569999792e-01 -1.943919886709999933e-01 7.089676955699999450e-01 -7.142764471410000260e-01 4.591765616640000047e-01 1.098527875300000026e-02 -2.242391047869999876e-01 -4.714016302669999936e-01 -1.735448561219999908e-01 9.502647303899999787e-02 -1.352117817669999944e-01 -8.249720831000000032e-03 1.600854079859999890e-01 1.911838719339999937e-01 4.425466668729999831e-01 5.348833148020000205e-01 -3.854419407160000199e-01 -4.290954477059999994e-01 6.198412542369999834e-01 6.913810995839999585e-01 -4.402446313539999934e-01 2.891025100230000255e-01 3.117954873050000075e-01 3.186260264010000176e-01 -4.048439869839999816e-01 6.398455147110000407e-01 -2.737197689270000067e-01 -1.413349031639999920e-01 -1.245642675950000000e-01 1.311776485739999942e-01 -3.285347864059999790e-01 -2.872922635500000169e-02 3.334735614279999982e-01 2.761310503459999954e-01 3.923285428159999921e-01 -9.079030764000000503e-03 -1.087016130879999987e-01 -1.798259250939999998e-01 3.617292400600000124e-02 -3.480440130000000271e-02 1.132539223599999915e-02 4.381196251260000007e-01 9.409574860000000096e-02 5.977721392799999894e-02 -5.290109722900000061e-02 -5.226357956870000265e-01 2.762708856819999781e-01