2.099257672217639925e+00 7.434843048662954966e-04 9.464660109024068679e-02 7.434843048662954966e-04 2.415351510555372894e+00 -1.289952330348235476e-01 9.464660109024068679e-02 -1.289952330348235476e-01 5.540069547494659297e-01
1.807298342027797933e+00 3.790393466506025016e-02 5.649518398659493235e-01 3.790393466506025016e-02 3.884434612402881903e+00 -7.010066539577033407e-01 5.649518398659493235e-01 -7.010066539577033407e-01 4.450187141898103577e-02
5.117536219270787390e-01 -1.798084081652038743e-02 9.054791617724725628e-01 -1.798084081652038743e-02 3.565972434592123985e+00 -1.055936624235866095e+00 9.054791617724725628e-01 -1.055936624235866095e+00 -4.762979783972992043e-01
-7.310838070873233452e-01 -1.705560430896480850e-01 9.519222097268488225e-01 -1.705560430896480850e-01 2.744071951624002192e+00 -1.194943489198634357e+00 9.519222097268488225e-01 -1.194943489198634357e+00 1.619327032064631355e+00
-1.450556050073610992e+00 -1.441328204457192341e-01 6.825999306915104814e-01 -1.441328204457192341e-01 1.771751319032386807e+00 -9.646260550813847701e-01 6.825999306915104814e-01 -9.646260550813847701e-01 1.866233279536680723e+00
-2.906144702312198902e+00 -5.284514381752811879e-02 2.678582489857717075e-01 -5.284514381752811879e-02 -1.267353551639699205e+00 -6.668978620516874400e-01 2.678582489857717075e-01 -6.668978620516874400e-01 -2.462391300637731373e+00
-4.922506066941270575e+00 8.396502443673624014e-03 -1.157139830517695950e-01 8.396502443673624014e-03 -5.048957802914962656e+00 -5.553904644368632404e-01 -1.157139830517695950e-01 -5.553904644368632404e-01 -6.849568688565736529e+00
-5.501723201882878556e+00 -6.005216676329674236e-02 -4.225200068246204310e-01 -6.005216676329674236e-02 -6.824578051211788399e+00 -4.479080747454166622e-01 -4.225200068246204310e-01 -4.479080747454166622e-01 -7.052623542064146989e+00
-3.157861498890789598e+00 -1.334464549032642056e-01 -4.671921089284363782e-01 -1.334464549032642056e-01 -4.962599617247800410e+00 -3.290468040018122431e-01 -4.671921089284363782e-01 -3.290468040018122431e-01 -2.883678389851852764e+00
-8.833756891255556409e-01 1.627858204125695596e-02 -6.552442012995308707e-01 1.627858204125695596e-02 -1.697363148793406662e+00 -3.457334246715293435e-01 -6.552442012995308707e-01 -3.457334246715293435e-01 -1.160545847427316701e-01
-1.607482542063086939e+00 3.484698405215604089e-02 -1.163646817979809400e+00 3.484698405215604089e-02 -2.140575829293312804e+00 1.216782629658353905e-03 -1.163646817979809400e+00 1.216782629658353905e-03 -4.710662757610807105e+00
-1.060551159138556132e+00 -1.524685787669395332e-01 -1.640351235887918868e+00 -1.524685787669395332e-01 -1.690071469695345607e+00 3.260452731251975433e-01 -1.640351235887918868e+00 3.260452731251975433e-01 -7.929067000611743410e+00
1.802113109831525506e+00 -3.571922118760681442e-01 -2.136581056130268053e+00 -3.571922118760681442e-01 2.529969899702106062e+00 -3.207148340744948173e-02 -2.136581056130268053e+00 -3.207148340744948173e-02 -4.549445742693984052e+00
4.388640444507356797e+00 -6.342234155922021888e-01 -2.225910531782012480e+00 -6.342234155922021888e-01 6.291013815460986258e+00 -3.335966443674265314e-01 -2.225910531782012480e+00 -3.335966443674265314e-01 -4.111585809757208332e-01
6.214763175328509526e+00 -7.626016004853010122e-01 -1.196512389867429693e+00 -7.626016004853010122e-01 9.098291185313755136e+00 -4.066964637939256000e-01 -1.196512389867429693e+00 -4.066964637939256000e-01 1.471227563289799312e+00
6.208095917353161575e+00 -8.580104781157295024e-01 3.057825989001534683e-01 -8.580104781157295024e-01 8.202658801923027099e+00 -3.933680044286208544e-01 3.057825989001534683e-01 -3.933680044286208544e-01 8.279173872278336455e-02
4.270949350366640473e+00 -9.950354819572405640e-01 1.128953966359856897e+00 -9.950354819572405640e-01 7.275675794052512302e+00 -2.292975704631092793e-01 1.128953966359856897e+00 -2.292975704631092793e-01 -6.096797951291191175e+00
3.766967984326561325e+00 -8.058920260351446485e-01 1.740516214484069346e+00 -8.058920260351446485e-01 4.168719067231704045e+00 -4.705104171857141249e-01 1.740516214484069346e+00 -4.705104171857141249e-01 -6.873696062906001103e+00
5.203794043300705496e+00 -9.393205494018399548e-01 2.117949373946837355e+00 -9.393205494018399548e-01 2.040263521403512748e+00 -6.945750795489393781e-01 2.117949373946837355e+00 -6.945750795489393781e-01 -2.820283329379408510e+00
4.011823598085666909e+00 -1.536185903450301149e+00 1.862048739084225302e+00 -1.536185903450301149e+00 3.124639984588684083e-01 -3.901916056469393879e-01 1.862048739084225302e+00 -3.901916056469393879e-01 -1.025020765532290934e+00
-3.336516202777598528e-01 -1.744453110503240145e+00 1.576900605366204466e+00 -1.744453110503240145e+00 -4.232400884566607679e+00 -5.612182454827934625e-02 1.576900605366204466e+00 -5.612182454827934625e-02 -2.486126672908048452e+00
-4.153819942241767649e+00 -1.830494743003681313e+00 1.837900323763099975e+00 -1.830494743003681313e+00 -6.073245507827772727e+00 2.891080589728035610e-01 1.837900323763099975e+00 2.891080589728035610e-01 -1.075456909920485771e+01
-3.871894124451132679e+00 -1.975465732874599034e+00 1.942181017370789409e+00 -1.975465732874599034e+00 -5.001072003168054003e+00 1.321227234760994573e+00 1.942181017370789409e+00 1.321227234760994573e+00 -1.164808520538114323e+01
-2.431544442716002674e+00 -1.508332400472970791e+00 1.900023889205652461e+00 -1.508332400472970791e+00 -3.936355291503064624e+00 1.977701064674627585e+00 1.900023889205652461e+00 1.977701064674627585e+00 -5.274453328547636488e+00
-6.111487882868961385e+00 -1.216949372766779280e+00 1.519784503832947831e+00 -1.216949372766779280e+00 -6.041477971541768355e+00 2.414012516296466515e+00 1.519784503832947831e+00 2.414012516296466515e+00 -4.641718700049849211e+00
-9.310975760157221615e+00 -1.137517655349996826e+00 7.752184868947226137e-01 -1.137517655349996826e+00 -7.086606101604113306e+00 3.231364400675030168e+00 7.752184868947226137e-01 3.231364400675030168e+00 -1.030560384205807267e+01
-5.290329329553141946e+00 -3.580877311467700053e-01 2.583666609403880154e-01 -3.580877311467700053e-01 -8.041884157894746421e-01 3.257021819053240286e+00 2.583666609403880154e-01 3.257021819053240286e+00 -8.279215561839627924e+00
1.175588617412978820e+00 -1.002852122286883828e-02 7.765814615771627905e-01 -1.002852122286883828e-02 5.272199045622350866e+00 2.904849712102100412e+00 7.765814615771627905e-01 2.904849712102100412e+00 -3.753401269050945371e-02
6.187555583253995017e+00 -1.773195408704555248e-02 3.319867270931956549e-01 -1.773195408704555248e-02 5.586333445037634071e+00 3.399769660855513465e+00 3.319867270931956549e-01 3.399769660855513465e+00 -2.381932845876301164e-01
2.684240161847870176e+00 -2.202363379549746036e-01 -7.112962764456520759e-01 -2.202363379549746036e-01 3.988011002782729353e+00 3.172013044402484105e+00 -7.112962764456520759e-01 3.172013044402484105e+00 -3.582075361876862374e+00
1.873942582433489212e+00 -7.040088017414911636e-01 1.354839556557114078e+00 -7.040088017414911636e-01 3.960049141900674474e+00 2.335277822031537109e+00 1.354839556557114078e+00 2.335277822031537109e+00 -5.011901786943673720e+00
3.648380295330559075e+00 -6.614372499250811277e-01 2.697884788634616893e+00 -6.614372499250811277e-01 3.234571220717657791e+00 2.276671951530899740e+00 2.697884788634616893e+00 2.276671951530899740e+00 -2.196815101504599799e+00
7.337187741785410111e+00 -3.737325143784717696e-01 3.130816220483668477e+00 -3.737325143784717696e-01 1.339325479586137346e+00 1.677350571170965088e+00 3.130816220483668477e+00 1.677350571170965088e+00 -1.259709280355963745e+00
4.769883591439417536e+00 -4.524706148355294721e-01 3.950054795292208265e+00 -4.524706148355294721e-01 -1.786022384062584178e+00 3.639392596206929009e-01 3.950054795292208265e+00 3.639392596206929009e-01 -5.224276639132826361e+00
-2.565478368311751023e+00 -5.743314355146389438e-01 3.659980993463705090e+00 -5.743314355146389438e-01 -6.554166016918195226e+00 -5.014940528681877119e-01 3.659980993463705090e+00 -5.014940528681877119e-01 -9.573852884381736317e+00
-7.114626589125667699e+00 -7.266364189483742742e-01 2.334564304490548192e+00 -7.266364189483742742e-01 -7.923625214547165285e+00 -4.003810124057410880e-01 2.334564304490548192e+00 -4.003810124057410880e-01 -7.750131156804086707e+00
-8.785501622677927003e+00 -8.471134431153789501e-01 1.475236307915364309e+00 -8.471134431153789501e-01 -9.243335479068525373e+00 -1.918264212896821641e-01 1.475236307915364309e+00 -1.918264212896821641e-01 -4.675769105896436351e+00
-8.676330881411981721e+00 -4.619082523104701687e-01 7.476032829548534542e-01 -4.619082523104701687e-01 -8.024208421761862553e+00 -2.653471493704562811e-01 7.476032829548534542e-01 -2.653471493704562811e-01 -2.392558118933637346e+00
-6.302496140001660585e+00 -2.156266987223339482e-01 -5.400624153648931891e-01 -2.156266987223339482e-01 -5.068643410990230969e+00 -3.063739572066757066e-01 -5.400624153648931891e-01 -3.063739572066757066e-01 -3.588978155298281791e+00
-2.065985051717097676e+00 -2.280546339478219942e-01 -1.824256632613749485e+00 -2.280546339478219942e-01 -2.211564872224510481e+00 -3.366246711955408477e-01 -1.824256632613749485e+00 -3.366246711955408477e-01 -5.649140293606931706e+00
2.783484000858709173e+00 -6.848077768020802147e-02 -2.198810203447526312e+00 -6.848077768020802147e-02 2.932598343860153722e+00 -4.446616149953247499e-01 -2.198810203447526312e+00 -4.446616149953247499e-01 -3.830165652245115293e+00
7.559020420780314886e+00 2.397139255832083371e-01 -1.905877105400019200e+00 2.397139255832083371e-01 7.365207206127613482e+00 -3.897755646419853170e-01 -1.905877105400019200e+00 -3.897755646419853170e-01 1.294996333415959766e+00
1.019149139851433361e+01 3.258474342455867645e-01 -1.482032660531396040e+00 3.258474342455867645e-01 9.507422043380657328e+00 -2.101529422204138908e-01 -1.482032660531396040e+00 -2.101529422204138908e-01 3.453504726354134302e+00
9.391514306839203741e+00 6.625550332178313517e-02 -1.084788473372763296e+00 6.625550332178313517e-02 9.386030542175229030e+00 -5.494787472907470410e-02 -1.084788473372763296e+00 -5.494787472907470410e-02 -4.434624326950393214e-01
6.824586895715758494e+00 -6.653542254863890892e-02 -5.863903563648371620e-01 -6.653542254863890892e-02 7.654852642556973841e+00 1.193046650174924145e-01 -5.863903563648371620e-01 1.193046650174924145e-01 -3.126946518052544643e+00
3.334262065953323972e+00 -5.428344149501351107e-02 -2.932200951008325229e-01 -5.428344149501351107e-02 4.719054069141740193e+00 -1.563971628319804352e-01 -2.932200951008325229e-01 -1.563971628319804352e-01 -3.664727878902536151e+00
8.128918295911466974e-01 -1.829126370963908843e-01 -1.606057292000548364e-01 -1.829126370963908843e-01 1.613227581553872358e+00 -6.765152436683498083e-01 -1.606057292000548364e-01 -6.765152436683498083e-01 -3.089230663005311794e-01
-1.440311201031293065e+00 -3.799588804828134547e-01 5.987930128655900158e-02 -3.799588804828134547e-01 -1.932851289010322215e+00 -1.108215916474258655e+00 5.987930128655900158e-02 -1.108215916474258655e+00 -3.718523486830587199e-01
-3.789313672347857764e+00 -4.734947996313171870e-01 -8.236946693362461394e-03 -4.734947996313171870e-01 -4.812023396301126965e+00 -1.360027694188998382e+00 -8.236946693362461394e-03 -1.360027694188998382e+00 -5.841155411704336053e+00
-5.362869332480239670e+00 -3.641120309222535267e-01 -9.733107485941397408e-02 -3.641120309222535267e-01 -6.373658173230515089e+00 -1.291570520724736548e+00 -9.733107485941397408e-02 -1.291570520724736548e+00 -9.088452055199391921e+00
-4.769267563331413662e+00 -1.101994588964647220e-01 -8.499817107289583951e-02 -1.101994588964647220e-01 -5.587124366699061540e+00 -9.569133171954639083e-01 -8.499817107289583951e-02 -9.569133171954639083e-01 -8.296289519075731533e+00
-2.776941165178003157e+00 6.192095496271850241e-02 -2.120071914954431980e-01 6.192095496271850241e-02 -3.861733452258648391e+00 -7.109850656818015313e-01 -2.120071914954431980e-01 -7.109850656818015313e-01 -4.013861673290542775e+00
-4.721803318433731023e-01 -3.314163004819342673e-02 -1.752120218930643958e-01 -3.314163004819342673e-02 -1.121800075863225610e+00 -5.314755565607993670e-01 -1.752120218930643958e-01 -5.314755565607993670e-01 -9.937513075837537888e-03
1.358617487312571814e+00 -1.404700324938782108e-01 -1.047869740942508274e-02 -1.404700324938782108e-01 1.518104500827738290e+00 -1.502724330529988661e-01 -1.047869740942508274e-02 -1.502724330529988661e-01 -1.808370177925761602e-01
3.063447957567219326e+00 -2.355372741216509719e-02 -1.856158862235772478e-01 -2.355372741216509719e-02 3.824256181785094633e+00 4.882711944796342962e-01 -1.856158862235772478e-01 4.882711944796342962e-01 -5.384557594551122595e-01
4.216277801239536771e+00 -9.087501243018337657e-03 -5.826994328623178454e-01 -9.087501243018337657e-03 5.222421479911670161e+00 1.271218743076218072e+00 -5.826994328623178454e-01 1.271218743076218072e+00 1.384517107280280879e+00
4.406622334145572140e+00 1.807050181361570876e-02 -8.605849186728841138e-01 1.807050181361570876e-02 5.313001763185350335e+00 1.656236522660138322e+00 -8.605849186728841138e-01 1.656236522660138322e+00 5.537810744609476643e+00
3.687424823357104309e+00 1.570229293199465748e-01 -6.069627708501693641e-01 1.570229293199465748e-01 4.254909493970293610e+00 1.548954744796867899e+00 -6.069627708501693641e-01 1.548954744796867899e+00 7.043455085698361984e+00
1.380639880032685785e+00 1.931246946184818347e-01 4.944553923617050345e-02 1.931246946184818347e-01 1.333446584000819168e+00 1.158832028376595602e+00 4.944553923617050345e-02 1.158832028376595602e+00 5.762136668973133480e-01
-1.511086500467515581e+00 3.146229976877409906e-01 5.828821114015450000e-01 3.146229976877409906e-01 -1.669319577617881523e+00 6.989561663907053468e-01 5.828821114015450000e-01 6.989561663907053468e-01 -5.336551025749011856e+00
-4.357787855254269260e+00 5.017086562497136137e-01 9.835600734704058601e-01 5.017086562497136137e-01 -4.839239253974231936e+00 1.810070312809476112e-01 9.835600734704058601e-01 1.810070312809476112e-01 -7.459392476864112886e+00
-5.206890382443003951e+00 4.902558748283015189e-01 1.422715586459188719e+00 4.902558748283015189e-01 -6.620408477034503747e+00 -3.135498839989698250e-01 1.422715586459188719e+00 -3.135498839989698250e-01 -4.639541909118936935e+00
-5.236949762976003342e+00 4.924998608732726324e-01 1.657089555969647465e+00 4.924998608732726324e-01 -6.053506999088885010e+00 -4.453257111216866737e-01 1.657089555969647465e+00 -4.453257111216866737e-01 -1.901070427045242095e+00
-5.351266613070695399e+00 5.468417215872932724e-01 1.444819556429526530e+00 5.468417215872932724e-01 -5.098951105847775445e+00 -4.554921623493119465e-01 1.444819556429526530e+00 -4.554921623493119465e-01 -3.889744038342278554e+00
-5.053435146547933243e+00 2.897609566153463989e-01 1.098057978648691924e+00 2.897609566153463989e-01 -4.809646420277611689e+00 -8.741339627887551034e-01 1.098057978648691924e+00 -8.741339627887551034e-01 -8.094281738509577551e+00
-3.251573446971786741e+00 -2.203560789826695954e-01 7.031455409708391446e-01 -2.203560789826695954e-01 -3.054436413555250862e+00 -8.994254690353290504e-01 7.031455409708391446e-01 -8.994254690353290504e-01 -6.498116556297111046e+00
1.327773032840228407e+00 -4.971647045450241498e-01 1.417293216897812236e-01 -4.971647045450241498e-01 1.168830201125639290e+00 -5.140985884679776241e-01 1.417293216897812236e-01 -5.140985884679776241e-01 -5.481297362898064351e-01
5.885226845550483254e+00 -5.489007539001189429e-01 -4.011511865639550423e-01 -5.489007539001189429e-01 4.753588728629122073e+00 -2.722051355567353670e-01 -4.011511865639550423e-01 -2.722051355567353670e-01 4.558029202857281525e+00
7.063604166555530917e+00 -5.789517537362981470e-01 -4.587726553922627515e-01 -5.789517537362981470e-01 6.605798693388822862e+00 3.345292380501203033e-01 -4.587726553922627515e-01 3.345292380501203033e-01 -2.702032404309799296e-01
6.171472567131650599e+00 -6.381794232725804816e-01 -9.336302047548638017e-01 -6.381794232725804816e-01 5.820360554387941754e+00 1.183188830599599672e+00 -9.336302047548638017e-01 1.183188830599599672e+00 -7.190815235127230309e+00
4.866604455322847578e+00 -2.116980870417380922e-01 -1.358166212554982044e+00 -2.116980870417380922e-01 5.149054540945420477e+00 1.371507922704043869e+00 -1.358166212554982044e+00 1.371507922704043869e+00 -8.384060015418757672e+00
4.227782094109298505e+00 1.103137329816622492e-01 -5.938825131550694580e-01 1.103137329816622492e-01 6.386206131449678303e+00 1.536743010715232005e+00 -5.938825131550694580e-01 1.536743010715232005e+00 -6.623846941189125204e+00
5.884402238849530065e+00 -1.759226949231853243e-01 3.824935956112303637e-01 -1.759226949231853243e-01 8.207756330819831803e+00 9.862174976451952846e-01 3.824935956112303637e-01 9.862174976451952846e-01 7.702709730428147772e-01
4.662851750031133058e+00 -5.840176290399801129e-01 1.018022054100679918e+00 -5.840176290399801129e-01 6.335790093772691201e+00 5.368274319494116265e-01 1.018022054100679918e+00 5.368274319494116265e-01 1.388033312094469007e+00
7.172425910868469590e-01 -1.258220599015040353e+00 1.232618034674004326e+00 -1.258220599015040353e+00 1.557472257399237892e+00 9.087804613314913738e-01 1.232618034674004326e+00 9.087804613314913738e-01 -4.094726189428373075e+00
-3.149902148967630655e+00 -2.142773002231582069e+00 7.896417863102931367e-01 -2.142773002231582069e+00 -2.519303743520551642e+00 8.786177138445505630e-01 7.896417863102931367e-01 8.786177138445505630e-01 -1.027294273017466963e+01
-6.222497784225661910e+00 -2.577394284879369390e+00 9.874577306164862567e-02 -2.577394284879369390e+00 -1.518784806881769756e+00 7.346793585662868276e-02 9.874577306164862567e-02 7.346793585662868276e-02 -1.201995171249820871e+01
-4.464328272643887097e+00 -2.799108080696210976e+00 -3.498965807030611774e-01 -2.799108080696210976e+00 1.907085786545306805e+00 -4.389344348521757588e-01 -3.498965807030611774e-01 -4.389344348521757588e-01 -7.579734102997784717e+00
-3.776227347484421681e+00 -3.049606785904541262e+00 -2.313820919741786664e-02 -3.049606785904541262e+00 1.262508584241312626e+00 -7.411711728440321112e-01 -2.313820919741786664e-02 -7.411711728440321112e-01 -7.899935057208546496e+00
-4.881677482085483355e+00 -3.340772711282245844e+00 2.114584783337542795e-01 -3.340772711282245844e+00 -3.887560714573271792e+00 -1.652693547111444117e+00 2.114584783337542795e-01 -1.652693547111444117e+00 -1.302086316060118421e+01
-4.661515114824585915e+00 -2.859102616962490906e+00 8.775171598273266982e-01 -2.859102616962490906e+00 -7.171614758939651502e+00 -2.322695078114998424e+00 8.775171598273266982e-01 -2.322695078114998424e+00 -1.499647201590929058e+01
-2.563526373934761349e+00 -1.444560719520691983e+00 1.349795118432596253e+00 -1.444560719520691983e+00 -4.870424331180998045e+00 -2.315471548485789288e+00 1.349795118432596253e+00 -2.315471548485789288e+00 -1.180118223149771062e+01
1.785258027984169549e-01 -4.407230287492623355e-01 1.175561962039154196e+00 -4.407230287492623355e-01 2.012798213327102292e+00 -1.601655570512520388e+00 1.175561962039154196e+00 -1.601655570512520388e+00 1.406469833035826733e+00
4.383512550743233760e+00 -3.548751049150943304e-01 1.799241180842789042e-02 -3.548751049150943304e-01 7.958313850730275085e+00 -8.561439568201165140e-02 1.799241180842789042e-02 -8.561439568201165140e-02 1.517817589725768990e+01
6.113484054333850004e+00 -2.859355906842207529e-01 -1.594283870596471031e+00 -2.859355906842207529e-01 6.859655628486446943e+00 1.429073961577120411e+00 -1.594283870596471031e+00 1.429073961577120411e+00 1.322181587736646513e+01
2.328043527988474359e+00 -5.142107436571363710e-01 -1.161069195463697801e+00 -5.142107436571363710e-01 1.353349918633378168e+00 2.465821653013682280e+00 -1.161069195463697801e+00 2.465821653013682280e+00 -4.401170052733076599e-01
-2.917056197750298452e+00 -5.402867106988246126e-01 -1.067045526820461360e-01 -5.402867106988246126e-01 3.709374722070079167e-03 2.131596373086408480e+00 -1.067045526820461360e-01 2.131596373086408480e+00 -9.767118025749169874e+00
-5.105082886477087634e+00 1.268236734798752208e-01 5.066768119081790367e-01 1.268236734798752208e-01 -1.554322568517506831e+00 7.669323150436724301e-01 5.066768119081790367e-01 7.669323150436724301e-01 -9.490351607928225519e+00
-3.400570396695221653e+00 6.230070361803936585e-01 1.322032036090628804e+00 6.230070361803936585e-01 -4.954954961826274484e+00 6.654215936974336443e-02 1.322032036090628804e+00 6.654215936974336443e-02 -4.178332079601914550e+00
-6.211965703034877606e+00 -6.897565586551400452e-02 1.116493327432760418e+00 -6.897565586551400452e-02 -1.093703203297330795e+01 1.257103430851460313e-01 1.116493327432760418e+00 1.257103430851460313e-01 -6.204688695333667070e+00
-9.795187799796632788e+00 -2.128267295624170774e-01 3.517806330049759456e-02 -2.128267295624170774e-01 -1.182461811105010874e+01 -1.392918355749282189e-01 3.517806330049759456e-02 -1.392918355749282189e-01 -1.325785790100018957e+01
-1.071116067624339685e+01 3.445260814845544362e-01 -3.173096465162146274e-01 3.445260814845544362e-01 -9.928400901620706875e+00 -9.952590966486877244e-01 -3.173096465162146274e-01 -9.952590966486877244e-01 -1.222162776105301774e+01
-8.870053768774448955e+00 5.296007093802480581e-01 -1.404786162281582429e-01 5.296007093802480581e-01 -5.681432521049707418e+00 -1.683248948019954616e+00 -1.404786162281582429e-01 -1.683248948019954616e+00 -5.831750912466647563e+00
-2.321570197615451914e+00 4.758760590670453317e-01 2.994981100634241389e-01 4.758760590670453317e-01 7.277434802834016336e-01 -1.690148528874655609e+00 2.994981100634241389e-01 -1.690148528874655609e+00 3.651098576517865180e+00
4.474321407645710735e+00 5.642781176199831439e-01 5.503642239272482639e-01 5.642781176199831439e-01 6.549467982004554045e+00 -1.527397830831839221e+00 5.503642239272482639e-01 -1.527397830831839221e+00 6.140430669824143095e+00
7.042055977987704551e+00 4.410624493489872511e-01 5.969447884266813054e-01 4.410624493489872511e-01 8.787104815320478934e+00 -1.686890210768688503e+00 5.969447884266813054e-01 -1.686890210768688503e+00 -7.381235698821780877e-01
8.719727921569250029e+00 2.087688567992124211e-01 3.635489759451968617e-01 2.087688567992124211e-01 1.008401665094130628e+01 -1.253654357177207190e+00 3.635489759451968617e-01 -1.253654357177207190e+00 -3.112984876935239509e+00
1.147866883413572836e+01 1.291017525796950005e-01 2.420770610400850009e-01 1.291017525796950005e-01 1.243016829918193622e+01 -7.789201485263195224e-01 2.420770610400850009e-01 -7.789201485263195224e-01 -8.918271450632750952e-01
1.129891123547428755e+01 1.161177491723364291e-01 2.484539874313661245e-01 1.161177491723364291e-01 1.124507666477724932e+01 -5.162085247716101666e-01 2.484539874313661245e-01 -5.162085247716101666e-01 6.642578777706261706e-01
7.684076002016892559e+00 7.442683747960977814e-02 2.467638473861033244e-01 7.442683747960977814e-02 6.839297597605449752e+00 -2.698928007783799043e-01 2.467638473861033244e-01 -2.698928007783799043e-01 -4.701002917050632335e-01
2.825016935613273272e+00 1.247910179620816649e-02 4.919880228773331199e-01 1.247910179620816649e-02 2.493403422632840982e+00 4.420944886290482656e-01 4.919880228773331199e-01 4.420944886290482656e-01 -5.233758739599005061e+00
-2.302936864295284991e+00 -8.382945377063928671e-02 5.266329064701988916e-01 -8.382945377063928671e-02 -6.307671939176309195e-01 9.704125085441108745e-01 5.266329064701988916e-01 9.704125085441108745e-01 -8.324194874195130822e+00
-6.330741657376369069e+00 -2.506779163897255303e-01 2.346897196159499210e-01 -2.506779163897255303e-01 -3.910246901528913188e+00 1.270805955614550120e+00 2.346897196159499210e-01 1.270805955614550120e+00 -6.471539840205222660e+00
-7.124984766892724863e+00 -4.037000046796919150e-01 -1.277900479564811342e-01 -4.037000046796919150e-01 -5.327850000719717372e+00 1.580528860194311047e+00 -1.277900479564811342e-01 1.580528860194311047e+00 -4.280604827882068086e+00
-5.768219542107932085e+00 -4.732223658338530758e-01 -5.010859754777610142e-01 -4.732223658338530758e-01 -4.738272447166354873e+00 1.595207646784799094e+00 -5.010859754777610142e-01 1.595207646784799094e+00 -4.092977073327785043e+00
-4.292331225092452129e+00 -4.094284810128500651e-01 -8.177204713122692148e-01 -4.094284810128500651e-01 -4.034753922616621580e+00 1.421782297943450901e+00 -8.177204713122692148e-01 1.421782297943450901e+00 -7.352526600075984575e+00
-2.802972402954583941e+00 -2.324761631036909304e-01 -1.053375084198700629e+00 -2.324761631036909304e-01 -2.765495354681632101e+00 1.137791143031611218e+00 -1.053375084198700629e+00 1.137791143031611218e+00 -8.667599502431732716e+00
3.697312332708642124e-01 -2.102282597923843532e-01 -1.049938544388725914e+00 -2.102282597923843532e-01 3.244347770758087557e-01 7.384473542797550527e-01 -1.049938544388725914e+00 7.384473542797550527e-01 -4.483239673301448569e+00
4.969111182451759312e+00 -3.731326763977820260e-01 -6.529549249878945361e-01 -3.731326763977820260e-01 5.007400691612334143e+00 3.444282393254201047e-01 -6.529549249878945361e-01 3.444282393254201047e-01 2.929504633075882936e+00
6.405678715847805016e+00 -4.366851525734865569e-01 -3.445168564103249786e-01 -4.366851525734865569e-01 7.138079119543734308e+00 -1.765432317178563040e-02 -3.445168564103249786e-01 -1.765432317178563040e-02 6.307899755524863927e+00
5.778934003121174001e+00 -2.888016440759261783e-01 -2.422931085129301776e-01 -2.888016440759261783e-01 6.877391097486992955e+00 -3.700895857371275244e-01 -2.422931085129301776e-01 -3.700895857371275244e-01 4.428988862749974054e+00
4.569062614718599313e+00 -1.557882769568557646e-01 -9.255088622908820561e-02 -1.557882769568557646e-01 5.464160878568522506e+00 -4.761323831298615583e-01 -9.255088622908820561e-02 -4.761323831298615583e-01 2.619247570637213141e+00
2.212765513154211661e+00 -1.141110771240919364e-01 1.540719642248672416e-01 -1.141110771240919364e-01 1.938278435357883245e+00 -3.143565804020355681e-01 1.540719642248672416e-01 -3.143565804020355681e-01 4.300878154529598874e+00
-1.364428503750306332e+00 -9.128692462975548927e-02 4.377864429979648198e-01 -9.128692462975548927e-02 -2.659419513130374391e+00 -3.174964085562134719e-02 4.377864429979648198e-01 -3.174964085562134719e-02 5.048575414866292910e+00
-5.101930273022389883e+00 -3.997206250832790325e-02 3.831401778058877716e-01 -3.997206250832790325e-02 -5.971090712826562452e+00 3.636369908388366601e-01 3.831401778058877716e-01 3.636369908388366601e-01 -2.261919220485088949e-02
-6.738350773212403055e+00 -1.865045909235582555e-01 3.045341880218718211e-01 -1.865045909235582555e-01 -7.207017582401794797e+00 9.737292888630506571e-01 3.045341880218718211e-01 9.737292888630506571e-01 -8.001005260314141054e+00
-8.038538403997556259e+00 -3.625213341049667859e-01 3.974728804636624147e-01 -3.625213341049667859e-01 -7.932646372388195033e+00 1.621437165020711779e+00 3.974728804636624147e-01 1.621437165020711779e+00 -1.186818134911607459e+01
-9.538397357629884610e+00 -2.499005212608096382e-01 2.374508190873567681e-01 -2.499005212608096382e-01 -8.806055802989062542e+00 1.827497093237780090e+00 2.374508190873567681e-01 1.827497093237780090e+00 -1.073574337494623521e+01
-8.396452555201502577e+00 -1.907427096880386086e-01 -3.003028086277595432e-01 -1.907427096880386086e-01 -7.445588145870986274e+00 1.551312759585381507e+00 -3.003028086277595432e-01 1.551312759585381507e+00 -4.772533810340765292e+00
-5.045647787850709776e+00 -1.754066542719214528e-01 -7.471750754118212656e-01 -1.754066542719214528e-01 -3.157955846904803465e+00 7.138968375213432527e-01 -7.471750754118212656e-01 7.138968375213432527e-01 7.189822761008514140e-01
-1.222596298750419308e+00 -1.004688871155865471e-01 -1.113367981189220313e+00 -1.004688871155865471e-01 4.230468557697915633e-01 -6.936370163072551609e-01 -1.113367981189220313e+00 -6.936370163072551609e-01 -8.539431670751028713e-01
2.676055781538578593e+00 -1.240948817464337939e-01 -1.382360692872795616e+00 -1.240948817464337939e-01 3.827971195660862858e+00 -1.590052966865681983e+00 -1.382360692872795616e+00 -1.590052966865681983e+00 -2.407021497108068786e+00
7.516186323787372281e+00 -3.684187173454124831e-01 -1.353559640953615695e+00 -3.684187173454124831e-01 8.182605869898331719e+00 -2.408870476074249645e+00 -1.353559640953615695e+00 -2.408870476074249645e+00 -7.353752261381553135e-01
1.172103257088637562e+01 -6.401514688386157337e-01 -9.597872103048777914e-01 -6.401514688386157337e-01 1.174080287385229759e+01 -3.146781583225094270e+00 -9.597872103048777914e-01 -3.146781583225094270e+00 4.632785044295158805e+00
1.179533935026269198e+01 -2.995563452304277341e-01 -2.997224682326997125e-01 -2.995563452304277341e-01 1.209796677204859527e+01 -3.634015469267614318e+00 -2.997224682326997125e-01 -3.634015469267614318e+00 4.731932700221546106e+00
9.314433163102416202e+00 -3.421909102348440895e-02 -4.471552839667020107e-02 -3.421909102348440895e-02 9.688007950963644532e+00 -3.484048949915534266e+00 -4.471552839667020107e-02 -3.484048949915534266e+00 -2.902093085192297028e+00
5.529184034319919228e+00 3.415812835668087244e-01 2.151884230988638791e-01 3.415812835668087244e-01 6.632439243016736263e+00 -2.572523215768771188e+00 2.151884230988638791e-01 -2.572523215768771188e+00 -1.124784489765680640e+01
5.856650080078007470e-01 6.983014371308509105e-01 9.690986573161110007e-01 6.983014371308509105e-01 1.082497565792494676e+00 -2.079964797876774352e+00 9.690986573161110007e-01 -2.079964797876774352e+00 -1.599290941671277722e+01
-5.000969232863630154e+00 1.282312514165934447e-01 2.095673747457755365e+00 1.282312514165934447e-01 -5.380884388307563881e+00 -1.512153076634446869e+00 2.095673747457755365e+00 -1.512153076634446869e+00 -1.660851190101196195e+01
-7.304495285995744602e+00 -5.774254041470758825e-01 2.594026331981287292e+00 -5.774254041470758825e-01 -6.870731676566371959e+00 -2.731240675271343621e-01 2.594026331981287292e+00 -2.731240675271343621e-01 -1.170853007469382057e+01