7.951923725965431622e+00 -0.000000000000000000e+00 0.000000000000000000e+00 -0.000000000000000000e+00 7.952604095053022348e+00 0.000000000000000000e+00 0.000000000000000000e+00 0.000000000000000000e+00 7.952594089621617179e+00
7.953138103412110027e+00 -0.000000000000000000e+00 0.000000000000000000e+00 -0.000000000000000000e+00 7.953818576402102103e+00 0.000000000000000000e+00 0.000000000000000000e+00 0.000000000000000000e+00 7.953808569442704979e+00
7.957364167386613119e+00 -0.000000000000000000e+00 0.000000000000000000e+00 -0.000000000000000000e+00 7.958045001959524356e+00 0.000000000000000000e+00 0.000000000000000000e+00 0.000000000000000000e+00 7.958034989682158056e+00
7.963727401487921576e+00 -0.000000000000000000e+00 0.000000000000000000e+00 -0.000000000000000000e+00 7.964408780501698537e+00 0.000000000000000000e+00 0.000000000000000000e+00 0.000000000000000000e+00 7.964398760218378115e+00
7.969230027963146057e+00 -0.000000000000000000e+00 0.000000000000000000e+00 -0.000000000000000000e+00 7.969911877784213061e+00 0.000000000000000000e+00 0.000000000000000000e+00 0.000000000000000000e+00 7.969901850576933455e+00
7.971925100171499246e+00 -0.000000000000000000e+00 0.000000000000000000e+00 -0.000000000000000000e+00 7.972607180583239028e+00 0.000000000000000000e+00 0.000000000000000000e+00 0.000000000000000000e+00 7.972597149984977705e+00
7.971559500780998953e+00 -0.000000000000000000e+00 0.000000000000000000e+00 -0.000000000000000000e+00 7.972241549911919023e+00 0.000000000000000000e+00 0.000000000000000000e+00 0.000000000000000000e+00 7.972231519773655961e+00
7.969725735720702531e+00 -0.000000000000000000e+00 0.000000000000000000e+00 -0.000000000000000000e+00 7.970407627953526308e+00 0.000000000000000000e+00 0.000000000000000000e+00 0.000000000000000000e+00 7.970397600123249937e+00
7.967689958615248536e+00 -0.000000000000000000e+00 0.000000000000000000e+00 -0.000000000000000000e+00 7.968371676667074688e+00 0.000000000000000000e+00 0.000000000000000000e+00 0.000000000000000000e+00 7.968361651397783518e+00
7.966156286494527450e+00 -0.000000000000000000e+00 0.000000000000000000e+00 -0.000000000000000000e+00 7.966837873324108088e+00 0.000000000000000000e+00 0.000000000000000000e+00 0.000000000000000000e+00 7.966827849984806420e+00
7.965666564834513075e+00 -0.000000000000000000e+00 0.000000000000000000e+00 -0.000000000000000000e+00 7.966348109764335383e+00 0.000000000000000000e+00 0.000000000000000000e+00 0.000000000000000000e+00 7.966338087040028881e+00
7.967479821568861809e+00 -0.000000000000000000e+00 0.000000000000000000e+00 -0.000000000000000000e+00 7.968161521640790390e+00 0.000000000000000000e+00 0.000000000000000000e+00 0.000000000000000000e+00 7.968151496636497910e+00
7.971863858362024935e+00 -0.000000000000000000e+00 0.000000000000000000e+00 -0.000000000000000000e+00 7.972545933533795370e+00 0.000000000000000000e+00 0.000000000000000000e+00 0.000000000000000000e+00 7.972535903012533787e+00
7.976695764808116706e+00 -0.000000000000000000e+00 0.000000000000000000e+00 -0.000000000000000000e+00 7.977378253398507368e+00 0.000000000000000000e+00 0.000000000000000000e+00 0.000000000000000000e+00 7.977368216798280898e+00
7.980228127281774775e+00 -0.000000000000000000e+00 0.000000000000000000e+00 -0.000000000000000000e+00 7.980910918103425011e+00 0.000000000000000000e+00 0.000000000000000000e+00 0.000000000000000000e+00 7.980900877057224285e+00
7.983612159550265375e+00 -0.000000000000000000e+00 0.000000000000000000e+00 -0.000000000000000000e+00 7.984295239910249364e+00 0.000000000000000000e+00 0.000000000000000000e+00 0.000000000000000000e+00 7.984285194607073421e+00
7.988537497039540192e+00 -0.000000000000000000e+00 0.000000000000000000e+00 -0.000000000000000000e+00 7.989220998813098440e+00 0.000000000000000000e+00 0.000000000000000000e+00 0.000000000000000000e+00 7.989210947312957778e+00
7.994962592878753327e+00 -0.000000000000000000e+00 0.000000000000000000e+00 -0.000000000000000000e+00 7.995646644385146828e+00 0.000000000000000000e+00 0.000000000000000000e+00 0.000000000000000000e+00 7.995636584800053903e+00
8.000401140659834098e+00 -0.000000000000000000e+00 0.000000000000000000e+00 -0.000000000000000000e+00 8.001085657490550673e+00 0.000000000000000000e+00 0.000000000000000000e+00 0.000000000000000000e+00 8.001075591062495107e+00
8.002416045209438167e+00 -0.000000000000000000e+00 0.000000000000000000e+00 -0.000000000000000000e+00 8.003100734435159680e+00 0.000000000000000000e+00 0.000000000000000000e+00 0.000000000000000000e+00 8.003090665472118559e+00
8.001899459635058776e+00 -0.000000000000000000e+00 0.000000000000000000e+00 -0.000000000000000000e+00 8.002584104662036069e+00 0.000000000000000000e+00 0.000000000000000000e+00 0.000000000000000000e+00 8.002574036348992337e+00
8.000993519724922010e+00 -0.000000000000000000e+00 0.000000000000000000e+00 -0.000000000000000000e+00 8.001678087239346482e+00 0.000000000000000000e+00 0.000000000000000000e+00 0.000000000000000000e+00 8.001668020066295739e+00
7.999419852313425672e+00 -0.000000000000000000e+00 0.000000000000000000e+00 -0.000000000000000000e+00 8.000104285184624686e+00 0.000000000000000000e+00 0.000000000000000000e+00 0.000000000000000000e+00 8.000094219991561673e+00
7.997436236165717638e+00 -0.000000000000000000e+00 0.000000000000000000e+00 -0.000000000000000000e+00 7.998120499317893817e+00 0.000000000000000000e+00 0.000000000000000000e+00 0.000000000000000000e+00 7.998110436619817243e+00
7.994885611474881415e+00 -0.000000000000000000e+00 0.000000000000000000e+00 -0.000000000000000000e+00 7.995569656395312919e+00 0.000000000000000000e+00 0.000000000000000000e+00 0.000000000000000000e+00 7.995559596907218847e+00
7.992129940066355687e+00 -0.000000000000000000e+00 0.000000000000000000e+00 -0.000000000000000000e+00 7.992813749210144536e+00 0.000000000000000000e+00 0.000000000000000000e+00 0.000000000000000000e+00 7.992803693190030145e+00
7.988287993895754724e+00 -0.000000000000000000e+00 0.000000000000000000e+00 -0.000000000000000000e+00 7.988971474321436617e+00 0.000000000000000000e+00 0.000000000000000000e+00 0.000000000000000000e+00 7.988961423135294559e+00
7.982043112956170638e+00 -0.000000000000000000e+00 0.000000000000000000e+00 -0.000000000000000000e+00 7.982726059067926982e+00 0.000000000000000000e+00 0.000000000000000000e+00 0.000000000000000000e+00 7.982716015738739124e+00
7.977327939091131803e+00 -0.000000000000000000e+00 0.000000000000000000e+00 -0.000000000000000000e+00 7.978010481771209861e+00 0.000000000000000000e+00 0.000000000000000000e+00 0.000000000000000000e+00 7.978000444374988120e+00
7.978181084971166293e+00 -0.000000000000000000e+00 0.000000000000000000e+00 -0.000000000000000000e+00 7.978863700646825485e+00 0.000000000000000000e+00 0.000000000000000000e+00 0.000000000000000000e+00 7.978853662176609518e+00
7.982641460296902913e+00 -0.000000000000000000e+00 0.000000000000000000e+00 -0.000000000000000000e+00 7.983324457603364621e+00 0.000000000000000000e+00 0.000000000000000000e+00 0.000000000000000000e+00 7.983314413522181852e+00
7.988773234728562933e+00 -0.000000000000000000e+00 0.000000000000000000e+00 -0.000000000000000000e+00 7.989456756672005611e+00 0.000000000000000000e+00 0.000000000000000000e+00 0.000000000000000000e+00 7.989446704874865191e+00
7.994598364565361770e+00 -0.000000000000000000e+00 0.000000000000000000e+00 -0.000000000000000000e+00 7.995282384907934414e+00 0.000000000000000000e+00 0.000000000000000000e+00 0.000000000000000000e+00 7.995272325781837885e+00
7.999919084959692839e+00 -0.000000000000000000e+00 0.000000000000000000e+00 -0.000000000000000000e+00 8.000603560545643589e+00 0.000000000000000000e+00 0.000000000000000000e+00 0.000000000000000000e+00 8.000593494723586829e+00
8.005243451761034024e+00 -0.000000000000000000e+00 0.000000000000000000e+00 -0.000000000000000000e+00 8.005928382901362994e+00 0.000000000000000000e+00 0.000000000000000000e+00 0.000000000000000000e+00 8.005918310380343073e+00
8.009740216031305593e+00 -0.000000000000000000e+00 0.000000000000000000e+00 -0.000000000000000000e+00 8.010425531915419839e+00 0.000000000000000000e+00 0.000000000000000000e+00 0.000000000000000000e+00 8.010415453737433467e+00
8.012853592550772674e+00 -0.000000000000000000e+00 0.000000000000000000e+00 -0.000000000000000000e+00 8.013539174816353139e+00 0.000000000000000000e+00 0.000000000000000000e+00 0.000000000000000000e+00 8.013529092720389713e+00
8.014005775270462095e+00 -0.000000000000000000e+00 0.000000000000000000e+00 -0.000000000000000000e+00 8.014691456117477131e+00 0.000000000000000000e+00 0.000000000000000000e+00 0.000000000000000000e+00 8.014681372572518114e+00
8.012183807114258371e+00 -0.000000000000000000e+00 0.000000000000000000e+00 -0.000000000000000000e+00 8.012869332073170980e+00 0.000000000000000000e+00 0.000000000000000000e+00 0.000000000000000000e+00 8.012859250820200785e+00
8.008047539203861476e+00 -0.000000000000000000e+00 0.000000000000000000e+00 -0.000000000000000000e+00 8.008732710261812215e+00 0.000000000000000000e+00 0.000000000000000000e+00 0.000000000000000000e+00 8.008722634213810920e+00
8.001826561449682629e+00 -0.000000000000000000e+00 0.000000000000000000e+00 -0.000000000000000000e+00 8.002511200239696976e+00 0.000000000000000000e+00 0.000000000000000000e+00 0.000000000000000000e+00 8.002501132017652452e+00
7.992937793313108941e+00 -0.000000000000000000e+00 0.000000000000000000e+00 -0.000000000000000000e+00 7.993621671576500276e+00 0.000000000000000000e+00 0.000000000000000000e+00 0.000000000000000000e+00 7.993611614539391397e+00
7.982293725773567772e+00 -0.000000000000000000e+00 0.000000000000000000e+00 -0.000000000000000000e+00 7.982976693328200923e+00 0.000000000000000000e+00 0.000000000000000000e+00 0.000000000000000000e+00 7.982966649684015259e+00
7.971156520096677411e+00 -0.000000000000000000e+00 0.000000000000000000e+00 -0.000000000000000000e+00 7.971838534748795446e+00 0.000000000000000000e+00 0.000000000000000000e+00 0.000000000000000000e+00 7.971828505117528607e+00
7.960675576055146863e+00 -0.000000000000000000e+00 0.000000000000000000e+00 -0.000000000000000000e+00 7.961356693953427488e+00 0.000000000000000000e+00 0.000000000000000000e+00 0.000000000000000000e+00 7.961346677510085179e+00
7.952606521600054990e+00 -0.000000000000000000e+00 0.000000000000000000e+00 -0.000000000000000000e+00 7.953286949108308690e+00 0.000000000000000000e+00 0.000000000000000000e+00 0.000000000000000000e+00 7.953276942817907980e+00
7.948408966722444013e+00 -0.000000000000000000e+00 0.000000000000000000e+00 -0.000000000000000000e+00 7.949089035085767030e+00 0.000000000000000000e+00 0.000000000000000000e+00 0.000000000000000000e+00 7.949079034076334871e+00
7.948273449287523995e+00 -0.000000000000000000e+00 0.000000000000000000e+00 -0.000000000000000000e+00 7.948953506056912310e+00 0.000000000000000000e+00 0.000000000000000000e+00 0.000000000000000000e+00 7.948943505217480165e+00
7.952062142076667506e+00 -0.000000000000000000e+00 0.000000000000000000e+00 -0.000000000000000000e+00 7.952742523007189313e+00 0.000000000000000000e+00 0.000000000000000000e+00 0.000000000000000000e+00 7.952732517401785550e+00
7.959097564474657105e+00 -0.000000000000000000e+00 0.000000000000000000e+00 -0.000000000000000000e+00 7.959778547358714818e+00 0.000000000000000000e+00 0.000000000000000000e+00 0.000000000000000000e+00 7.959768532900360682e+00
7.968414204744270535e+00 -0.000000000000000000e+00 0.000000000000000000e+00 -0.000000000000000000e+00 7.969095984761739082e+00 0.000000000000000000e+00 0.000000000000000000e+00 0.000000000000000000e+00 7.969085958581453077e+00
7.979166505726788650e+00 -0.000000000000000000e+00 0.000000000000000000e+00 -0.000000000000000000e+00 7.979849205714961258e+00 0.000000000000000000e+00 0.000000000000000000e+00 0.000000000000000000e+00 7.979839166005753270e+00
7.990469562385990265e+00 -0.000000000000000000e+00 0.000000000000000000e+00 -0.000000000000000000e+00 7.991153229467596653e+00 0.000000000000000000e+00 0.000000000000000000e+00 0.000000000000000000e+00 7.991143175535469823e+00
7.999903728002092151e+00 -0.000000000000000000e+00 0.000000000000000000e+00 -0.000000000000000000e+00 8.000588202273052119e+00 0.000000000000000000e+00 0.000000000000000000e+00 0.000000000000000000e+00 8.000578136470993584e+00
8.005043477422146836e+00 -0.000000000000000000e+00 0.000000000000000000e+00 -0.000000000000000000e+00 8.005728391451574666e+00 0.000000000000000000e+00 0.000000000000000000e+00 0.000000000000000000e+00 8.005718319182554055e+00
8.004669863378781614e+00 -0.000000000000000000e+00 0.000000000000000000e+00 -0.000000000000000000e+00 8.005354745442394560e+00 0.000000000000000000e+00 0.000000000000000000e+00 0.000000000000000000e+00 8.005344673643371323e+00
7.999593517245759067e+00 -0.000000000000000000e+00 0.000000000000000000e+00 -0.000000000000000000e+00 8.000277964975870404e+00 0.000000000000000000e+00 0.000000000000000000e+00 0.000000000000000000e+00 8.000267899563811014e+00
7.992295612070698496e+00 -0.000000000000000000e+00 0.000000000000000000e+00 -0.000000000000000000e+00 7.992979435389405474e+00 0.000000000000000000e+00 0.000000000000000000e+00 0.000000000000000000e+00 7.992969379160292043e+00
7.985568373010712762e+00 -0.000000000000000000e+00 0.000000000000000000e+00 -0.000000000000000000e+00 7.986251620744732271e+00 0.000000000000000000e+00 0.000000000000000000e+00 0.000000000000000000e+00 7.986241572979570158e+00
7.980561528194619392e+00 -0.000000000000000000e+00 0.000000000000000000e+00 -0.000000000000000000e+00 7.981244347541104567e+00 0.000000000000000000e+00 0.000000000000000000e+00 0.000000000000000000e+00 7.981234306075906559e+00
7.978391401610521072e+00 -0.000000000000000000e+00 0.000000000000000000e+00 -0.000000000000000000e+00 7.979074035281075616e+00 0.000000000000000000e+00 0.000000000000000000e+00 0.000000000000000000e+00 7.979063996546861048e+00
7.979524473961215669e+00 -0.000000000000000000e+00 0.000000000000000000e+00 -0.000000000000000000e+00 7.980207204577212110e+00 0.000000000000000000e+00 0.000000000000000000e+00 0.000000000000000000e+00 7.980197164417005773e+00
7.983219035474206748e+00 -0.000000000000000000e+00 0.000000000000000000e+00 -0.000000000000000000e+00 7.983902082198383710e+00 0.000000000000000000e+00 0.000000000000000000e+00 0.000000000000000000e+00 7.983892037390204699e+00
7.987230925319560804e+00 -0.000000000000000000e+00 0.000000000000000000e+00 -0.000000000000000000e+00 7.987914315301761548e+00 0.000000000000000000e+00 0.000000000000000000e+00 0.000000000000000000e+00 7.987904265445612495e+00
7.989194228146198284e+00 -0.000000000000000000e+00 0.000000000000000000e+00 -0.000000000000000000e+00 7.989877786109432556e+00 0.000000000000000000e+00 0.000000000000000000e+00 0.000000000000000000e+00 7.989867733782296533e+00
7.989063977095962166e+00 -0.000000000000000000e+00 0.000000000000000000e+00 -0.000000000000000000e+00 7.989747523914261684e+00 0.000000000000000000e+00 0.000000000000000000e+00 0.000000000000000000e+00 7.989737471752124343e+00
7.989514157510588355e+00 -0.000000000000000000e+00 0.000000000000000000e+00 -0.000000000000000000e+00 7.990197742846665285e+00 0.000000000000000000e+00 0.000000000000000000e+00 0.000000000000000000e+00 7.990187690117531716e+00
7.991542316468894569e+00 -0.000000000000000000e+00 0.000000000000000000e+00 -0.000000000000000000e+00 7.992226075334972535e+00 0.000000000000000000e+00 0.000000000000000000e+00 0.000000000000000000e+00 7.992216020053853676e+00
7.991846759263430577e+00 -0.000000000000000000e+00 0.000000000000000000e+00 -0.000000000000000000e+00 7.992530544178358731e+00 0.000000000000000000e+00 0.000000000000000000e+00 0.000000000000000000e+00 7.992520488513242150e+00
7.988279971159936821e+00 -0.000000000000000000e+00 0.000000000000000000e+00 -0.000000000000000000e+00 7.988963450898621588e+00 0.000000000000000000e+00 0.000000000000000000e+00 0.000000000000000000e+00 7.988953399722478643e+00
7.981672259264915859e+00 -0.000000000000000000e+00 0.000000000000000000e+00 -0.000000000000000000e+00 7.982355173645855118e+00 0.000000000000000000e+00 0.000000000000000000e+00 0.000000000000000000e+00 7.982345130783664366e+00
7.973455763921537098e+00 -0.000000000000000000e+00 0.000000000000000000e+00 -0.000000000000000000e+00 7.974137975297523440e+00 0.000000000000000000e+00 0.000000000000000000e+00 0.000000000000000000e+00 7.974127942773272970e+00
7.964314195536157825e+00 -0.000000000000000000e+00 0.000000000000000000e+00 -0.000000000000000000e+00 7.964995624756646464e+00 0.000000000000000000e+00 0.000000000000000000e+00 0.000000000000000000e+00 7.964985603734330510e+00
7.957365308600043541e+00 -0.000000000000000000e+00 0.000000000000000000e+00 -0.000000000000000000e+00 7.958046143270954609e+00 0.000000000000000000e+00 0.000000000000000000e+00 0.000000000000000000e+00 7.958036130992588220e+00
7.956835155932762582e+00 -0.000000000000000000e+00 0.000000000000000000e+00 -0.000000000000000000e+00 7.957515945243933686e+00 0.000000000000000000e+00 0.000000000000000000e+00 0.000000000000000000e+00 7.957505933632563533e+00
7.965438961600666445e+00 -0.000000000000000000e+00 0.000000000000000000e+00 -0.000000000000000000e+00 7.966120487055599497e+00 0.000000000000000000e+00 0.000000000000000000e+00 0.000000000000000000e+00 7.966110464619291953e+00
7.979083611925950059e+00 -0.000000000000000000e+00 0.000000000000000000e+00 -0.000000000000000000e+00 7.979766304821163558e+00 0.000000000000000000e+00 0.000000000000000000e+00 0.000000000000000000e+00 7.979756265215955047e+00
7.993252722853280368e+00 -0.000000000000000000e+00 0.000000000000000000e+00 -0.000000000000000000e+00 7.993936628062515481e+00 0.000000000000000000e+00 0.000000000000000000e+00 0.000000000000000000e+00 7.993926570629409589e+00
8.007443556198570178e+00 -0.000000000000000000e+00 0.000000000000000000e+00 -0.000000000000000000e+00 8.008128675580817202e+00 0.000000000000000000e+00 0.000000000000000000e+00 0.000000000000000000e+00 8.008118600291812328e+00
8.020798772858920955e+00 -0.000000000000000000e+00 0.000000000000000000e+00 -0.000000000000000000e+00 8.021485034917589019e+00 0.000000000000000000e+00 0.000000000000000000e+00 0.000000000000000000e+00 8.021474942824683652e+00
8.030169996222337403e+00 -0.000000000000000000e+00 0.000000000000000000e+00 -0.000000000000000000e+00 8.030857060085391907e+00 0.000000000000000000e+00 0.000000000000000000e+00 0.000000000000000000e+00 8.030846956200552000e+00
8.032497875038366431e+00 -0.000000000000000000e+00 0.000000000000000000e+00 -0.000000000000000000e+00 8.033185138075273457e+00 0.000000000000000000e+00 0.000000000000000000e+00 0.000000000000000000e+00 8.033175031262452137e+00
8.025162579206536861e+00 -0.000000000000000000e+00 0.000000000000000000e+00 -0.000000000000000000e+00 8.025849214633058892e+00 0.000000000000000000e+00 0.000000000000000000e+00 0.000000000000000000e+00 8.025839117049182292e+00
8.009290788906342939e+00 -0.000000000000000000e+00 0.000000000000000000e+00 -0.000000000000000000e+00 8.009976066337680223e+00 0.000000000000000000e+00 0.000000000000000000e+00 0.000000000000000000e+00 8.009965988724689012e+00
7.989554299505519097e+00 -0.000000000000000000e+00 0.000000000000000000e+00 -0.000000000000000000e+00 7.990237888276576328e+00 0.000000000000000000e+00 0.000000000000000000e+00 0.000000000000000000e+00 7.990227835496442665e+00
7.970479888682572067e+00 -0.000000000000000000e+00 0.000000000000000000e+00 -0.000000000000000000e+00 7.971161845441022464e+00 0.000000000000000000e+00 0.000000000000000000e+00 0.000000000000000000e+00 7.971151816661751432e+00
7.955313549632585968e+00 -0.000000000000000000e+00 0.000000000000000000e+00 -0.000000000000000000e+00 7.955994208754506580e+00 0.000000000000000000e+00 0.000000000000000000e+00 0.000000000000000000e+00 7.955984199057125394e+00
7.944487719814322446e+00 -0.000000000000000000e+00 0.000000000000000000e+00 -0.000000000000000000e+00 7.945167452674575692e+00 0.000000000000000000e+00 0.000000000000000000e+00 0.000000000000000000e+00 7.945157456599115875e+00
7.938160957173073129e+00 -0.000000000000000000e+00 0.000000000000000000e+00 -0.000000000000000000e+00 7.938840148713442346e+00 0.000000000000000000e+00 0.000000000000000000e+00 0.000000000000000000e+00 7.938830160598937091e+00
7.937638224538079434e+00 -0.000000000000000000e+00 0.000000000000000000e+00 -0.000000000000000000e+00 7.938317371352706431e+00 0.000000000000000000e+00 0.000000000000000000e+00 0.000000000000000000e+00 7.938307383896197500e+00
7.943667994198910343e+00 -0.000000000000000000e+00 0.000000000000000000e+00 -0.000000000000000000e+00 7.944347656923566703e+00 0.000000000000000000e+00 0.000000000000000000e+00 0.000000000000000000e+00 7.944337661880100931e+00
7.956159522388912997e+00 -0.000000000000000000e+00 0.000000000000000000e+00 -0.000000000000000000e+00 7.956840253892417003e+00 0.000000000000000000e+00 0.000000000000000000e+00 0.000000000000000000e+00 7.956830243131041591e+00
7.972289736779540448e+00 -0.000000000000000000e+00 0.000000000000000000e+00 -0.000000000000000000e+00 7.972971848389101446e+00 0.000000000000000000e+00 0.000000000000000000e+00 0.000000000000000000e+00 7.972961817332842926e+00
7.987964608832257341e+00 -0.000000000000000000e+00 0.000000000000000000e+00 -0.000000000000000000e+00 7.988648061589097793e+00 0.000000000000000000e+00 0.000000000000000000e+00 0.000000000000000000e+00 7.988638010808952750e+00
8.001508390564170625e+00 -0.000000000000000000e+00 0.000000000000000000e+00 -0.000000000000000000e+00 8.002193002131340549e+00 0.000000000000000000e+00 0.000000000000000000e+00 0.000000000000000000e+00 8.002182934310294371e+00
8.012669581438995436e+00 -0.000000000000000000e+00 0.000000000000000000e+00 -0.000000000000000000e+00 8.013355147961668479e+00 0.000000000000000000e+00 0.000000000000000000e+00 0.000000000000000000e+00 8.013345066096702496e+00
8.020335946339089972e+00 -0.000000000000000000e+00 0.000000000000000000e+00 -0.000000000000000000e+00 8.021022168797987462e+00 0.000000000000000000e+00 0.000000000000000000e+00 0.000000000000000000e+00 8.021012077287076991e+00
8.022199564367543445e+00 -0.000000000000000000e+00 0.000000000000000000e+00 -0.000000000000000000e+00 8.022885946278522695e+00 0.000000000000000000e+00 0.000000000000000000e+00 0.000000000000000000e+00 8.022875852422625798e+00
8.017873366445440908e+00 -0.000000000000000000e+00 0.000000000000000000e+00 -0.000000000000000000e+00 8.018559378204551891e+00 0.000000000000000000e+00 0.000000000000000000e+00 0.000000000000000000e+00 8.018549289792623824e+00
8.009602947986460109e+00 -0.000000000000000000e+00 0.000000000000000000e+00 -0.000000000000000000e+00 8.010288252126644082e+00 0.000000000000000000e+00 0.000000000000000000e+00 0.000000000000000000e+00 8.010278174120657013e+00
7.998753733072809347e+00 -0.000000000000000000e+00 0.000000000000000000e+00 -0.000000000000000000e+00 7.999438108950335469e+00 0.000000000000000000e+00 0.000000000000000000e+00 0.000000000000000000e+00 7.999428044595268794e+00
7.984820055988249621e+00 -0.000000000000000000e+00 0.000000000000000000e+00 -0.000000000000000000e+00 7.985503239695638911e+00 0.000000000000000000e+00 0.000000000000000000e+00 0.000000000000000000e+00 7.985493192872470836e+00
7.967996070236178063e+00 -0.000000000000000000e+00 0.000000000000000000e+00 -0.000000000000000000e+00 7.968677814478853705e+00 0.000000000000000000e+00 0.000000000000000000e+00 0.000000000000000000e+00 7.968667788823563747e+00
7.951016187606496644e+00 -0.000000000000000000e+00 0.000000000000000000e+00 -0.000000000000000000e+00 7.951696479045534005e+00 0.000000000000000000e+00 0.000000000000000000e+00 0.000000000000000000e+00 7.951686474755121914e+00
7.937602410471236603e+00 -0.000000000000000000e+00 0.000000000000000000e+00 -0.000000000000000000e+00 7.938281554222879954e+00 0.000000000000000000e+00 0.000000000000000000e+00 0.000000000000000000e+00 7.938271566811371471e+00
7.929173040667227390e+00 -0.000000000000000000e+00 0.000000000000000000e+00 -0.000000000000000000e+00 7.929851463199023343e+00 0.000000000000000000e+00 0.000000000000000000e+00 0.000000000000000000e+00 7.929841486393453209e+00
7.925918072004806803e+00 -0.000000000000000000e+00 0.000000000000000000e+00 -0.000000000000000000e+00 7.926596216040206144e+00 0.000000000000000000e+00 0.000000000000000000e+00 0.000000000000000000e+00 7.926586243330612014e+00
7.928218666280893778e+00 -0.000000000000000000e+00 0.000000000000000000e+00 -0.000000000000000000e+00 7.928897007156159304e+00 0.000000000000000000e+00 0.000000000000000000e+00 0.000000000000000000e+00 7.928887031551582254e+00
7.937128937974686771e+00 -0.000000000000000000e+00 0.000000000000000000e+00 -0.000000000000000000e+00 7.937808041215563826e+00 0.000000000000000000e+00 0.000000000000000000e+00 0.000000000000000000e+00 7.937798054400051484e+00
7.952520493206260532e+00 -0.000000000000000000e+00 0.000000000000000000e+00 -0.000000000000000000e+00 7.953200913352556967e+00 0.000000000000000000e+00 0.000000000000000000e+00 0.000000000000000000e+00 7.953190907170155199e+00
7.971712031380987717e+00 -0.000000000000000000e+00 0.000000000000000000e+00 -0.000000000000000000e+00 7.972394093561831596e+00 0.000000000000000000e+00 0.000000000000000000e+00 0.000000000000000000e+00 7.972384063232569318e+00
7.991265255243741983e+00 -0.000000000000000000e+00 0.000000000000000000e+00 -0.000000000000000000e+00 7.991948990404956987e+00 0.000000000000000000e+00 0.000000000000000000e+00 0.000000000000000000e+00 7.991938935472836292e+00
8.009680652476170337e+00 -0.000000000000000000e+00 0.000000000000000000e+00 -0.000000000000000000e+00 8.010365963264314715e+00 0.000000000000000000e+00 0.000000000000000000e+00 0.000000000000000000e+00 8.010355885160327816e+00
8.027606749659156549e+00 -0.000000000000000000e+00 0.000000000000000000e+00 -0.000000000000000000e+00 8.028293594210472506e+00 0.000000000000000000e+00 0.000000000000000000e+00 0.000000000000000000e+00 8.028283493551615635e+00
8.043048942295246917e+00 -0.000000000000000000e+00 0.000000000000000000e+00 -0.000000000000000000e+00 8.043737108084956233e+00 0.000000000000000000e+00 0.000000000000000000e+00 0.000000000000000000e+00 8.043726987996210553e+00
8.052487480878175674e+00 -0.000000000000000000e+00 0.000000000000000000e+00 -0.000000000000000000e+00 8.053176454231236292e+00 0.000000000000000000e+00 0.000000000000000000e+00 0.000000000000000000e+00 8.053166322266559263e+00
8.054496746239239613e+00 -0.000000000000000000e+00 0.000000000000000000e+00 -0.000000000000000000e+00 8.055185891506312146e+00 0.000000000000000000e+00 0.000000000000000000e+00 0.000000000000000000e+00 8.055175757013648408e+00
8.050028752648355379e+00 -0.000000000000000000e+00 0.000000000000000000e+00 -0.000000000000000000e+00 8.050717515632628718e+00 0.000000000000000000e+00 0.000000000000000000e+00 0.000000000000000000e+00 8.050707386760933559e+00
8.039764083200882538e+00 -0.000000000000000000e+00 0.000000000000000000e+00 -0.000000000000000000e+00 8.040451967937212174e+00 0.000000000000000000e+00 0.000000000000000000e+00 0.000000000000000000e+00 8.040441851981441346e+00
8.023687746889116568e+00 -0.000000000000000000e+00 0.000000000000000000e+00 -0.000000000000000000e+00 8.024374256129362948e+00 0.000000000000000000e+00 0.000000000000000000e+00 0.000000000000000000e+00 8.024364160401477264e+00
8.005280058482314942e+00 -0.000000000000000000e+00 0.000000000000000000e+00 -0.000000000000000000e+00 8.005964992753627385e+00 0.000000000000000000e+00 0.000000000000000000e+00 0.000000000000000000e+00 8.005954920187607016e+00
7.988544056827779904e+00 -0.000000000000000000e+00 0.000000000000000000e+00 -0.000000000000000000e+00 7.989227559162334735e+00 0.000000000000000000e+00 0.000000000000000000e+00 0.000000000000000000e+00 7.989217507654194250e+00
7.974535232563790821e+00 -0.000000000000000000e+00 0.000000000000000000e+00 -0.000000000000000000e+00 7.975217536299244792e+00 0.000000000000000000e+00 0.000000000000000000e+00 0.000000000000000000e+00 7.975207502417003269e+00
7.963110456976239426e+00 -0.000000000000000000e+00 0.000000000000000000e+00 -0.000000000000000000e+00 7.963791783204320573e+00 0.000000000000000000e+00 0.000000000000000000e+00 0.000000000000000000e+00 7.963781763696996308e+00
7.956475452876321519e+00 -0.000000000000000000e+00 0.000000000000000000e+00 -0.000000000000000000e+00 7.957156211410669755e+00 0.000000000000000000e+00 0.000000000000000000e+00 0.000000000000000000e+00 7.957146200252297241e+00
7.955928758500259157e+00 -0.000000000000000000e+00 0.000000000000000000e+00 -0.000000000000000000e+00 7.956609470259876637e+00 0.000000000000000000e+00 0.000000000000000000e+00 0.000000000000000000e+00 7.956599459788500361e+00
7.960703377148115933e+00 -0.000000000000000000e+00 0.000000000000000000e+00 -0.000000000000000000e+00 7.961384497425382456e+00 0.000000000000000000e+00 0.000000000000000000e+00 0.000000000000000000e+00 7.961374480947040588e+00
7.969343005259815094e+00 -0.000000000000000000e+00 0.000000000000000000e+00 -0.000000000000000000e+00 7.970024864745826498e+00 0.000000000000000000e+00 0.000000000000000000e+00 0.000000000000000000e+00 7.970014837396546703e+00
7.980288421082705419e+00 -0.000000000000000000e+00 0.000000000000000000e+00 -0.000000000000000000e+00 7.980971217062325707e+00 0.000000000000000000e+00 0.000000000000000000e+00 0.000000000000000000e+00 7.980961175941125418e+00
7.991075401212599516e+00 -0.000000000000000000e+00 0.000000000000000000e+00 -0.000000000000000000e+00 7.991759120129906968e+00 0.000000000000000000e+00 0.000000000000000000e+00 0.000000000000000000e+00 7.991749065435785226e+00
7.999090239425777682e+00 -0.000000000000000000e+00 0.000000000000000000e+00 -0.000000000000000000e+00 7.999774644095137610e+00 0.000000000000000000e+00 0.000000000000000000e+00 0.000000000000000000e+00 7.999764579317073299e+00
8.004142276843728254e+00 -0.000000000000000000e+00 0.000000000000000000e+00 -0.000000000000000000e+00 8.004827113766600277e+00 0.000000000000000000e+00 0.000000000000000000e+00 0.000000000000000000e+00 8.004817042631573898e+00