1.665578100699999925e-02 7.946494864008999848e+00 3.991668100542999920e+00 3.982398624738999970e+00 7.938487599103000392e+00 2.726635513900000155e-02 3.930771781684000210e+00 3.987003728183999840e+00 7.945903844021000140e+00 4.018207532485000399e+00 3.928301632415000189e+00 3.983265479493999894e+00 1.717341295699999909e-02 4.101603840700000086e-02 7.925090320874000227e+00 1.271399484999999894e-03 3.967705662705999892e+00 1.064375870400000035e-02 7.912614444047999740e+00 3.968781256424999793e+00 3.979685174895000177e+00 4.004074643962000302e+00 2.545284751000000123e-02 3.934844369512000117e+00 2.004292737194000029e+00 1.995261169483000030e+00 1.990480640579999960e+00 1.979585700384999924e+00 1.978611037430000108e+00 5.980190642454999761e+00 1.974973678913999997e+00 5.988062929646000399e+00 1.987156137304999959e+00 1.985458787138000059e+00 5.947254294788000273e+00 5.953431703328000424e+00 5.964961362187000127e+00 1.977165493036999955e+00 1.975231630192000098e+00 5.971823462995000220e+00 2.000411709079000122e+00 5.961892480871999744e+00 5.962906410736000140e+00 5.955920347402999582e+00 1.966547253239000037e+00 5.968105935139999652e+00 5.957334272440999889e+00 5.984933428500999852e+00 1.960598918797000101e+00 2.060955912257000033e+00 1.999567068000000000e-03 7.924498512351999757e+00 1.991926975703999902e+00 2.009748626333999866e+00 1.984424229103000092e+00 7.834933356999999529e-03 1.959149882915999896e+00 2.007428927838999844e+00 2.035347535871999902e+00 3.932974618903999797e+00 1.035615980899999913e-02 1.964892441613999896e+00 5.966853342715999986e+00 2.008109837975000200e+00 3.730331699600000078e-02 5.949697658699999891e+00 1.947820945616999921e+00 5.978522151374000337e+00 7.919777539075999684e+00 3.733964631699999981e-02 5.978384359075000098e+00 1.987775426718999983e+00 1.969020692248999893e+00 4.008286157117000315e+00 1.986278505033999942e+00 2.000352084004000108e+00 5.952840835363000238e+00 4.017775319181000171e+00 1.294658937999999902e-03 5.980960018755999918e+00 5.969045004860999981e+00 1.905386289401000077e+00 4.040700609056999681e+00 5.934442078598999970e+00 6.008480547289000384e+00 1.939340826096999981e+00 3.688197703099999752e-02 3.945880974123999962e+00 1.972846539574999891e+00 1.945768407909000075e+00 5.934514116552000118e+00 7.934895457414000042e+00 2.038259566274000179e+00 5.891638273007999693e+00 1.989486971100000057e+00 4.032149817586000218e+00 4.018836051399000020e+00 1.950342480623999952e+00 6.005883301607999769e+00 5.939601685310999635e+00 7.929471225307000104e+00 5.933446390913999835e+00 5.998142767832000288e+00 5.915485423540999932e+00 7.932462898820999975e+00 3.984236020806000145e+00 5.961163780909999765e+00 2.006105737477000162e+00 5.957595650498999973e+00 3.993254577077999912e+00 1.967722060272999896e+00 5.964787139308000086e+00 5.941819568881999913e+00 3.959254076986999937e+00 3.996377575411000027e+00 5.994986933104000215e+00 5.962391597096999618e+00 5.989138331543999882e+00 3.998765219390000070e+00 6.010357650709000410e+00
3.883226957500000159e-02 7.937859292255000199e+00 4.014453270303000032e+00 3.992319718374000015e+00 7.918684702572000411e+00 6.374996497700000098e-02 3.866811823792000169e+00 4.004375523887000021e+00 7.937809335972000113e+00 4.077766517833000037e+00 3.864291608872000072e+00 3.993572567185000199e+00 4.266580646600000304e-02 9.851252310100000464e-02 7.885365532740999939e+00 4.441865906999999981e-03 3.958349145973000027e+00 2.624957003799999883e-02 7.858583865205000407e+00 3.961456438503999866e+00 3.984751085974000073e+00 4.048611913170000243e+00 5.889259979300000281e-02 3.878594988077999961e+00 2.036566062062000082e+00 2.009912578020999874e+00 1.996120857840999907e+00 1.979979607593000068e+00 1.962901434189000094e+00 6.004009713902999756e+00 1.967582197118000087e+00 6.018723780509000143e+00 1.985255721669000106e+00 1.992176864813999915e+00 5.923662747676999629e+00 5.939363470161000080e+00 5.960988746720000009e+00 1.961257130648000002e+00 1.955432820871999988e+00 5.971325878262000231e+00 2.014923629950999828e+00 5.958863289046999689e+00 5.950322495235999654e+00 5.943674483330999792e+00 1.942145821967999897e+00 5.965223185253999638e+00 5.953036352167999645e+00 6.008968478481000020e+00 1.948456447507999956e+00 2.164015091003999913e+00 7.937717927011999741e+00 7.881966359174000125e+00 1.990273280809000012e+00 2.053935396846000128e+00 1.988953919407999926e+00 3.203526219999999758e-02 1.919996698827999948e+00 2.046223488510999999e+00 2.099598625221000159e+00 3.901625373263999830e+00 3.111375236799999999e-02 1.928588645927000078e+00 5.962894218744000163e+00 2.044207308568999792e+00 1.164443077840000007e-01 5.928966877960999859e+00 1.934337785804000065e+00 6.006053080823000379e+00 7.906182828192999779e+00 6.799180059899999351e-02 6.009278834526999624e+00 1.994682009319999949e+00 1.975492247397000023e+00 4.043355511756000276e+00 1.979937645601000051e+00 2.029671018057999987e+00 5.955010179963999839e+00 4.029836274915999716e+00 7.952640926568999902e+00 6.024457256223000101e+00 5.967092983720999833e+00 1.833763856855999963e+00 4.072530524524999862e+00 5.895809139213000094e+00 6.038991398067000027e+00 1.870390693495000090e+00 8.464919398999999622e-02 3.922914195355999833e+00 1.963317241117999989e+00 1.880207919982999965e+00 5.884054466878000156e+00 7.931819570773000372e+00 2.106184157836000104e+00 5.789739042525000379e+00 1.996278006829000029e+00 4.083297576984000088e+00 4.042745804145000399e+00 1.925888986836000072e+00 6.081109701414000313e+00 5.907960118724999710e+00 7.920655423020000363e+00 5.900896403984999594e+00 6.015715412103999959e+00 5.858857915498999702e+00 7.937771564593999685e+00 3.992334278577000184e+00 5.953593795775000252e+00 2.013424056728999822e+00 5.917684412874000266e+00 3.985903039800999803e+00 1.942044156144999922e+00 5.966255163498000336e+00 5.900914004548000413e+00 3.929263064829000118e+00 4.013119151576000299e+00 6.022204235139000161e+00 5.974240364202000109e+00 5.996054985919999858e+00 3.987824671574999869e+00 6.074763079282000433e+00
5.430656890300000067e-02 7.932086885412999777e+00 4.035358911706000029e+00 4.003025867445000330e+00 7.903364055750000006e+00 9.003686487100000246e-02 3.812580828698000079e+00 4.024245279256000174e+00 7.934989717585000157e+00 4.126505661658000257e+00 3.820454279345999904e+00 4.002890852604999772e+00 6.769425266699999333e-02 1.481915088540000092e-01 7.850432050119000138e+00 1.057806258500000075e-02 3.955182665815000220e+00 4.173986846200000017e-02 7.815972317351000065e+00 3.961015561118999884e+00 3.988638863239999832e+00 4.098121153103999603e+00 8.257040135599999497e-02 3.835295055408999954e+00 2.060329692822000069e+00 2.033325915174000187e+00 2.007469856089000082e+00 1.985227748807000037e+00 1.950840094914999989e+00 6.027715545142999787e+00 1.961821804708000050e+00 6.039790083353000050e+00 1.983057132479999929e+00 1.996230866269000037e+00 5.903781344956000154e+00 5.929995911215000248e+00 5.970615710778999663e+00 1.945837505462999939e+00 1.937363925587000102e+00 5.968552659824999829e+00 2.019571002609000132e+00 5.957725270703000398e+00 5.938333648188000247e+00 5.933325795872000263e+00 1.937928911089999984e+00 5.968138424632000394e+00 5.964245239324999837e+00 6.017694561297999734e+00 1.914864559876999994e+00 2.248356639248000111e+00 7.909064884666999973e+00 7.859439044822999598e+00 1.992925375503999952e+00 2.105992664652999835e+00 1.991389877907000061e+00 7.790344259699999441e-02 1.889654025090999889e+00 2.083413900555000087e+00 2.146254468455000008e+00 3.919598343462999956e+00 3.141396710500000272e-02 1.907707822582999979e+00 5.959057910485999976e+00 2.070763583484000137e+00 1.578594615950000002e-01 5.911962141826999861e+00 1.941934359033000046e+00 6.046267423337000402e+00 7.933674706927000386e+00 4.300314879000000090e-02 6.041811398964999746e+00 1.998978715488000102e+00 1.975841409235999935e+00 4.057322589307999827e+00 1.965828123594999921e+00 2.058996545622000074e+00 6.001149348265999883e+00 3.970880076867000064e+00 7.950658137109999579e+00 6.086002054789999782e+00 5.965832137150999692e+00 1.796148448759000038e+00 4.030889483724999778e+00 5.870434019810000237e+00 6.072388526282000321e+00 1.806462341498999979e+00 8.762667074100000120e-02 3.933400331786999882e+00 1.962892521629000075e+00 1.831284590421000003e+00 5.842074709512999675e+00 7.952521473704000421e+00 2.157587618578999944e+00 5.729539548610000033e+00 2.010030505187999861e+00 4.079455447452000172e+00 4.008182196837999811e+00 1.950424903212000016e+00 6.162604029597000377e+00 5.908805085943999558e+00 7.930497654506000416e+00 5.901210968208999930e+00 6.039789380706999999e+00 5.840310166044999640e+00 2.405990438899999889e-02 3.992372104106999942e+00 5.963936998001999612e+00 1.999078668582999985e+00 5.893460111972999904e+00 3.934949693236000190e+00 1.927838464703000021e+00 5.990165688684999878e+00 5.841922886501000001e+00 3.920420150152000183e+00 3.999996436646000131e+00 6.027022694403999736e+00 5.996136843279000317e+00 6.016898328529999951e+00 3.924461939935000032e+00 6.128465658448000397e+00
6.195045463099999733e-02 7.931642335265999932e+00 4.050355638066999830e+00 4.013513809323000281e+00 7.894489321628999967e+00 1.035305670259999977e-01 3.772927766996000187e+00 4.044559898608000026e+00 7.938098655330000142e+00 4.156654618556999914e+00 3.803667917891000005e+00 4.009416363515000192e+00 9.163042232199999915e-02 1.888607355359999962e-01 7.822530438837000055e+00 1.842226297700000001e-02 3.955319016144999811e+00 5.757996069799999755e-02 7.785759573405999667e+00 3.962949655889000056e+00 3.988904569619999840e+00 4.146938984560000208e+00 9.653765179699999588e-02 3.807155815001999954e+00 2.074575767552000016e+00 2.064928711515999993e+00 2.026372317818999846e+00 1.996105726379999945e+00 1.948571303182000003e+00 6.048184021760000029e+00 1.954361638086000053e+00 6.051367793574000231e+00 1.979727415104999944e+00 1.995656477925999983e+00 5.884823596781999733e+00 5.923680395653000197e+00 5.994449693764000386e+00 1.931019217803999988e+00 1.922048776722999897e+00 5.963225897600000103e+00 2.012733725049999922e+00 5.957944204094999918e+00 5.927534854231000239e+00 5.923968843472000145e+00 1.956201239899999944e+00 5.977096567674999861e+00 5.990117581915000322e+00 6.010699103267000076e+00 1.851789943948999984e+00 2.299285653812999985e+00 7.917302146061000023e+00 7.884831193849000108e+00 2.001383670825000127e+00 2.162830459309000197e+00 1.986908232223999926e+00 1.234099558319999984e-01 1.869340524939000048e+00 2.118227410988999804e+00 2.163750697640999920e+00 3.947511159312000029e+00 7.945758535417000168e+00 1.897157342043999995e+00 5.948280752532999927e+00 2.083632865373000076e+00 7.331648256499999350e-02 5.900157901643000358e+00 1.965246303905000103e+00 6.087030101652000091e+00 7.938570049777999849e+00 7.947377574275999557e+00 6.071193468312999997e+00 2.000207284132000218e+00 1.965902196237000021e+00 4.068750432599999911e+00 1.945718165941999978e+00 2.082590751585000177e+00 6.082601686488000148e+00 3.919739723654000141e+00 7.957822557210000092e+00 6.146717104330000403e+00 5.967539555786999905e+00 1.793136220872999953e+00 4.028007705791000426e+00 5.853596920445999885e+00 6.110354731290000174e+00 1.744105800390000072e+00 3.068351191900000122e-02 3.944040985682999878e+00 1.977445774728999961e+00 1.800789409852999956e+00 5.812630599741999582e+00 7.947790961291000045e+00 2.190235205974000010e+00 5.721240399348999972e+00 2.014891334767999975e+00 4.054336553965000256e+00 3.961451482980999916e+00 2.019440934488999861e+00 6.236179520870999582e+00 5.929010010442000045e+00 7.902158744991999662e+00 5.930039965554000148e+00 6.065227335020000332e+00 5.861150191067999948e+00 3.348033128999999830e-02 3.985857715821000014e+00 5.989816836999000138e+00 1.964570686490000107e+00 5.884778428677999607e+00 3.896296702264999912e+00 1.924625043515000078e+00 6.028487477029999653e+00 5.766283637954000341e+00 3.977231385704000033e+00 3.969104667359999894e+00 5.998768344732999580e+00 6.023822855032999968e+00 6.048682941124000401e+00 3.894140737170999955e+00 6.167291160456000121e+00
6.288056884800000135e-02 7.935416936422999612e+00 4.055857076095000124e+00 4.021034654341000270e+00 7.889554686833999853e+00 1.024818885059999990e-01 3.751018148673999963e+00 4.064168749035999895e+00 7.944723499418000046e+00 4.163265995094000083e+00 3.816131966234999950e+00 4.012340391402999806e+00 1.148943688310000016e-01 2.153570213340000039e-01 7.799957117797999828e+00 2.376210706299999864e-02 3.958390740750000081e+00 7.187495836899999990e-02 7.764754874644999916e+00 3.962210391806999965e+00 3.985528486777000001e+00 4.182985586207999873e+00 1.000724777179999997e-01 3.795247803499000039e+00 2.079341381328999816e+00 2.098178423683000116e+00 2.051940283680000032e+00 2.009385472137999784e+00 1.941953094168000105e+00 6.062182746358000252e+00 1.940908820435000015e+00 6.056968298003000406e+00 1.973081469687000045e+00 1.990549912175000102e+00 5.874637476822999638e+00 5.919175215512000321e+00 6.030650375656000151e+00 1.915280159356999912e+00 1.905486740798999934e+00 5.958605083644999745e+00 2.001012918493000114e+00 5.957868423095000310e+00 5.919220683403000116e+00 5.913627091321999707e+00 1.987482007924000094e+00 5.990101848437999976e+00 6.020863230519999831e+00 5.991288698603000284e+00 1.759626819621000093e+00 2.302478689968999959e+00 7.945948479586999902e+00 7.927103349522999665e+00 2.015368736452999965e+00 2.210422498849000217e+00 1.971337918259999933e+00 1.490948334870000058e-01 1.859161025964999991e+00 2.147636192974999858e+00 2.149331815643999999e+00 3.972713247816999971e+00 7.890996439198000090e+00 1.887860932534999980e+00 5.921263970931000209e+00 2.077617305262000169e+00 7.962461122552999981e+00 5.903967432524999559e+00 1.987322136378000037e+00 6.108381419712999971e+00 7.915543500093000340e+00 7.901703631975999897e+00 6.088664117719999602e+00 2.000970463753000139e+00 1.942320240779999985e+00 4.096233841503999606e+00 1.929675640369999945e+00 2.094910209175000038e+00 6.170235918241999684e+00 3.901229521606000006e+00 1.046483208900000038e-02 6.177621293265000091e+00 5.971904550868999628e+00 1.810317566451999927e+00 4.046660765150000394e+00 5.838779638527999971e+00 6.146908940203999805e+00 1.684521653727000023e+00 7.954411073672000398e+00 3.947835246018999822e+00 2.008860823078999935e+00 1.787466699574999929e+00 5.802132325160999748e+00 7.912251841779999850e+00 2.204129561425999917e+00 5.755099418076000006e+00 1.992328287872999981e+00 4.032238420965000181e+00 3.916861751293999827e+00 2.105556489211999782e+00 6.280492945795000281e+00 5.935196888968000017e+00 7.859145414259000262e+00 5.963479282907999668e+00 6.079252304451999933e+00 5.909863898790000292e+00 2.468201207999999938e-02 3.976190182826000008e+00 6.017408981865999706e+00 1.924124967392000007e+00 5.888989071169000056e+00 3.891921813749000147e+00 1.927113359658999991e+00 6.060003827602000293e+00 5.686234633133000038e+00 4.073488227649000315e+00 3.948538054119000051e+00 5.933364376374999694e+00 6.044098049157000219e+00 6.079755019353999757e+00 3.901973826556000002e+00 6.185568970738000161e+00
5.881833332300000217e-02 7.941901362452999713e+00 4.050229358512000388e+00 4.023320013573999709e+00 7.885482366803000076e+00 8.714936973400000397e-02 3.747892103397000074e+00 4.083482085472000200e+00 7.953095809827999574e+00 4.147439863037999608e+00 3.853612301710000132e+00 4.012970427515000438e+00 1.387073226589999875e-01 2.211488329619999971e-01 7.781593528324999731e+00 2.227385423200000172e-02 3.967844564059999968e+00 8.079731403300000059e-02 7.751012062364000421e+00 3.955260304893000178e+00 3.981939666172999992e+00 4.195426775050999701e+00 9.278402959999999811e-02 3.798746805439999985e+00 2.076259661464999962e+00 2.123771769564999801e+00 2.079905331032000149e+00 2.020587494611000068e+00 1.924322018155999903e+00 6.070811984865000177e+00 1.921006140400000062e+00 6.063194022933999783e+00 1.962412634862999994e+00 1.983117590683000087e+00 5.879550807695999914e+00 5.916010001787999961e+00 6.075225546409000366e+00 1.897904367425000016e+00 1.887446774509000003e+00 5.960346695223999625e+00 1.996490985227000081e+00 5.955132803491999915e+00 5.914480118276999931e+00 5.901528339422999814e+00 2.015595487659000096e+00 6.004283320809999935e+00 6.040619270736000246e+00 5.970316995280000150e+00 1.655214472196000042e+00 2.253295795365000131e+00 7.954141301614000348e+00 7.936405598093999814e+00 2.034851746524000138e+00 2.236313840265999886e+00 1.945777411242999966e+00 1.606624322959999962e-01 1.858660386619999993e+00 2.167685003088999807e+00 2.107696047320000154e+00 3.995419134290000063e+00 7.862490800249999801e+00 1.873333969853999914e+00 5.875567430103999733e+00 2.058999839571999946e+00 4.146401085999999736e-02 5.931482449408999713e+00 1.991850321293000103e+00 6.099706529939999733e+00 7.904758585946000338e+00 7.890688691921999620e+00 6.086317858166999883e+00 2.009453608424999871e+00 1.905604999464000082e+00 4.130371106527999991e+00 1.929420256988999993e+00 2.093816361505000057e+00 6.237297096429999854e+00 3.889595524469999788e+00 3.786851694599999846e-02 6.167110272526000081e+00 5.975802772610999902e+00 1.827349532853000058e+00 4.014384122817999945e+00 5.822290311629999771e+00 6.174347253531999868e+00 1.635117194640000049e+00 1.292875519500000063e-02 3.954790779594000050e+00 2.053365432461999873e+00 1.791354667330000039e+00 5.816207554855999717e+00 7.887238113149000363e+00 2.202967551257000167e+00 5.804605194470999763e+00 1.941290701648000105e+00 4.021068407852999904e+00 3.882110282624999797e+00 2.175894827682999910e+00 6.285412217033999660e+00 5.901376331200999914e+00 7.884111205791000110e+00 5.975590084519000200e+00 6.071658637509999679e+00 5.970160207241000272e+00 5.296000469699999741e-02 3.965328472866000098e+00 6.030061561895999844e+00 1.899644575294000104e+00 5.907888244405000044e+00 3.897673328775999924e+00 1.931761522605000003e+00 6.070497539414000165e+00 5.619458967351000034e+00 4.126938629568999595e+00 3.959439950500000194e+00 5.844580810305999741e+00 6.042798973138999941e+00 6.097686213341999562e+00 3.886693980626000133e+00 6.182431767758999719e+00
5.056981404199999836e-02 7.952265514411999803e+00 4.032619230423000189e+00 4.020190988370999641e+00 7.882677235360000090e+00 6.142288761700000210e-02 3.762782304738999883e+00 4.100557664443999606e+00 7.963886864552000233e+00 4.113158584488999736e+00 3.906185659905999863e+00 4.012542770844000017e+00 1.630696959279999969e-01 2.055078482050000099e-01 7.769736256837999733e+00 1.315147548800000080e-02 3.984249269425999884e+00 8.252982931199999428e-02 7.745547031293999574e+00 3.937807463652999829e+00 3.980466293361000218e+00 4.181434285158999842e+00 7.827800263400000458e-02 3.813420584519000123e+00 2.070246727490999916e+00 2.134961903456999988e+00 2.105376207591000082e+00 2.025393361364999922e+00 1.907355254235999942e+00 6.078617851828999719e+00 1.896036163798999974e+00 6.076319767733999733e+00 1.949684451118000039e+00 1.977557172223999959e+00 5.888942671397000339e+00 5.911994557638999837e+00 6.120275506395000065e+00 1.879512977570999999e+00 1.874789372788999930e+00 5.972064034888999728e+00 2.002849059278999810e+00 5.945005254416999563e+00 5.911934047886999721e+00 5.888343620158000391e+00 2.029323810163000008e+00 6.015092294331999767e+00 6.045193604029999612e+00 5.959811505392999642e+00 1.565503730349999900e+00 2.167247269761999995e+00 7.943805535183000366e+00 7.919988722185999919e+00 2.060529313875000046e+00 2.243959238438999915e+00 1.916185526355999924e+00 1.688070242989999914e-01 1.864848828151000060e+00 2.174937092436000086e+00 2.049639576290999798e+00 3.991885331614000165e+00 7.858495349508999972e+00 1.853155412975000083e+00 5.821428886741999875e+00 2.040681158057000122e+00 1.341242612119999955e-01 5.978184629071000344e+00 1.974406072752000085e+00 6.068422226101000128e+00 7.903234775230999709e+00 7.920397894791999960e+00 6.063219177498999635e+00 2.031713922275999895e+00 1.860534688373000067e+00 4.138823353358000112e+00 1.949148320434000103e+00 2.083076150975999852e+00 6.271531320361000361e+00 3.898798276547000174e+00 5.134307278800000207e-02 6.127547199065999983e+00 5.976822097956000057e+00 1.832648432697000063e+00 3.998318755455000151e+00 5.802956602302000277e+00 6.192265985847000387e+00 1.603906395919999950e+00 8.085337672600000081e-02 3.946025917599000010e+00 2.103276532396999965e+00 1.812245875959000108e+00 5.853220142166000173e+00 7.890696207536000095e+00 2.199211599128000127e+00 5.838032534436999654e+00 1.883874198430000035e+00 4.036432010535000003e+00 3.887656984467999788e+00 2.210302280205000081e+00 6.258564185186999751e+00 5.827082317320000371e+00 7.937583862021999614e+00 5.956995597454000091e+00 6.046783292521999975e+00 6.025440056594000282e+00 9.995733510200000005e-02 3.956969643235999978e+00 6.019496284274000075e+00 1.908172392985000076e+00 5.943132304058999615e+00 3.905038388588999876e+00 1.937278956272999952e+00 6.062367215263000375e+00 5.587128155479000213e+00 4.105043307899999938e+00 3.999577466951000027e+00 5.765974830044999777e+00 6.013341465714000300e+00 6.100924763097999914e+00 3.860779169584000137e+00 6.171910957969999778e+00
3.809868811299999686e-02 7.968032667771000277e+00 4.004259901234999752e+00 4.013355148601999822e+00 7.884227344266999893e+00 3.088079994600000100e-02 3.794797157741999882e+00 4.112605442448000304e+00 8.856279187999999136e-03 4.064600314520999902e+00 3.964861117976000049e+00 4.011207878823999984e+00 1.852320379409999884e-01 1.704473465009999911e-01 7.768490804778999781e+00 7.968761881072000008e+00 4.005553245498999715e+00 7.806125475200000052e-02 7.750660124560000419e+00 3.909760712504000146e+00 3.981312267493000157e+00 4.146028124596999653e+00 6.050462806100000146e-02 3.835395089288999859e+00 2.066005725175000141e+00 2.131925471285999851e+00 2.124249249908999992e+00 2.023269517462999989e+00 1.913216587993999962e+00 6.091131349551000440e+00 1.868465883360999946e+00 6.098387437100999620e+00 1.938836987528999911e+00 1.978536762865999998e+00 5.892206708086000333e+00 5.903859630810000425e+00 6.155318599222000309e+00 1.861959355923000103e+00 1.879676397547000111e+00 5.993507144908000406e+00 2.015663827795000085e+00 5.924493018723000048e+00 5.908814307653999620e+00 5.875712216442000368e+00 2.027784733153000118e+00 6.017348620683000249e+00 6.040663259276000119e+00 5.960636962661999938e+00 1.515980135414999985e+00 2.076277879691000194e+00 7.927045002336999602e+00 7.926557427475000139e+00 2.091789012071000098e+00 2.249522987499000148e+00 1.888638304402000090e+00 1.590602725930000128e-01 1.871356604215000052e+00 2.166545608577000070e+00 1.986186658252000026e+00 3.965519845550999900e+00 7.880862136698000064e+00 1.834365891035000029e+00 5.777086003086999710e+00 2.033393789624000192e+00 8.867932796999999923e-02 6.030414850966000273e+00 1.944311902421000049e+00 6.030253219067000181e+00 7.894523594632000041e+00 2.290246257999999958e-03 6.028633332662000299e+00 2.062453352273999840e+00 1.818518658881000061e+00 4.109230265685999584e+00 1.984045307321000040e+00 2.069508233516999862e+00 6.273806972310000063e+00 3.954189046289999787e+00 2.478840785299999891e-02 6.082967439779999985e+00 5.976359328331000142e+00 1.823670500768000080e+00 4.062268635081999868e+00 5.783057158705999790e+00 6.207047602787000073e+00 1.592184519811000065e+00 8.357312891099999419e-02 3.913996919899000115e+00 2.148766499873000058e+00 1.843178038522000017e+00 5.905027689875000263e+00 7.909094687974000060e+00 2.205304039317999898e+00 5.836602285809999735e+00 1.850242505171999952e+00 4.076424121288000357e+00 3.927954410198000179e+00 2.203517371574999828e+00 6.216107529130000309e+00 5.734560122508000291e+00 7.912328230678999930e+00 5.917880254881000113e+00 6.021791986501000338e+00 6.065630190178000092e+00 1.103980059670000013e-01 3.958221788467000124e+00 5.991331660049000085e+00 1.954868295707000048e+00 5.991043874946000436e+00 3.924418320945000094e+00 1.939394384607999955e+00 6.048511667559999694e+00 5.612380539105999766e+00 4.054413086660000332e+00 4.051306344243999824e+00 5.729457838472000297e+00 5.967562168603000039e+00 6.102221051685999598e+00 3.885433888186000218e+00 6.171197319470000053e+00
2.276642360699999978e-02 1.699625706299999831e-02 3.970341904044000003e+00 4.004431973341000095e+00 7.890841080257000151e+00 7.967099548634999806e+00 3.842976017820999957e+00 4.119164496069999792e+00 3.063136312999999861e-02 4.005836553823000301e+00 4.025294825621999806e+00 4.007970767875000284e+00 2.012054397670000050e-01 1.139297832269999949e-01 7.776980649918000310e+00 7.950042746615999967e+00 4.031392381093000132e+00 6.843639084699999764e-02 7.767167609840000431e+00 3.879765736556000100e+00 3.984153827362999944e+00 4.095348055446000224e+00 3.809370290399999998e-02 3.865631957030000176e+00 2.063770357266999866e+00 2.121684489229000103e+00 2.133947795777999978e+00 2.017580200179000194e+00 1.930853897163000044e+00 6.107455589271999941e+00 1.844210703851000055e+00 6.126117671901999628e+00 1.931477732000999925e+00 1.987239821306999943e+00 5.898817622303000441e+00 5.889635275892000088e+00 6.174716277218999849e+00 1.846121828168000079e+00 1.899568184792000070e+00 6.022171687815999874e+00 2.032168626343000106e+00 5.900852730535000035e+00 5.901922809402999626e+00 5.863905338086000008e+00 2.016043180629000009e+00 6.009572204726000066e+00 6.029708573074000100e+00 5.967277605028000309e+00 1.525012750012000096e+00 2.014909935950000008e+00 7.902011939192999712e+00 7.952382290913999618e+00 2.118411190019000134e+00 2.261298303255999897e+00 1.868583796383000095e+00 1.077986974679999987e-01 1.870996454863000036e+00 2.144497540929000134e+00 1.923066809945999989e+00 3.969021257379000023e+00 7.936145555582999833e+00 1.828353322599999942e+00 5.750046977062000408e+00 2.043075183510000059e+00 7.954760339524000301e+00 6.083705374447999858e+00 1.916103231576999910e+00 5.990972841574000007e+00 7.914252600829000173e+00 3.273857561099999952e-02 5.996448340649999764e+00 2.091278291761999863e+00 1.794839036978999935e+00 4.053698552403999678e+00 2.025619959474000087e+00 2.056362026311000069e+00 6.249647217017000322e+00 4.020357371014999792e+00 7.938079950001999840e+00 6.050164973964999859e+00 5.977331652528000028e+00 1.804456976051000083e+00 4.089986108921999985e+00 5.769066905217999697e+00 6.221479848246000088e+00 1.605558354683999989e+00 1.921892328399999947e-02 3.902422729506000110e+00 2.174687371875999808e+00 1.869613024036000049e+00 5.964259461494999748e+00 7.941697328273000345e+00 2.221074311395999867e+00 5.802351325212000255e+00 1.860482627082000073e+00 4.088791573423000258e+00 3.943864948946000037e+00 2.162517615501999835e+00 6.171416491500999690e+00 5.652999426782000292e+00 7.841102279921999596e+00 5.871316193453999688e+00 6.010874273153000047e+00 6.086907228308000128e+00 8.311458053999999651e-02 3.973068556160999965e+00 5.958114218031999698e+00 2.029004170781000038e+00 6.045364353953999625e+00 3.942311051322000104e+00 1.931654856733000081e+00 6.040554436927999760e+00 5.694052896585000134e+00 3.999548603551999815e+00 4.072913579449999766e+00 5.735166540472000030e+00 5.929480507850000137e+00 6.112720168012000244e+00 3.929367598835999953e+00 6.179947096853999788e+00
6.928692289999999893e-03 3.140031148999999910e-02 3.938418561260999873e+00 3.995419174369999826e+00 7.902311749246000439e+00 7.932933639558999772e+00 3.904774014992999920e+00 4.119797748637999746e+00 5.404215622599999741e-02 3.941010664481999992e+00 4.083508635524999875e+00 4.001667561812999985e+00 2.076498728760000079e-01 3.598369005399999765e-02 7.790820940773000025e+00 7.931266613692000256e+00 4.061841074421000286e+00 5.400335140399999817e-02 7.796578141740000412e+00 3.858606541683999858e+00 3.988043715203999806e+00 4.035386802058000377e+00 9.428160160999999456e-03 3.907652835652000167e+00 2.064100608862000197e+00 2.113047913847999837e+00 2.138283914051000156e+00 2.013036621178000196e+00 1.943241161196000100e+00 6.120059889982999657e+00 1.828864778233999955e+00 6.152323181280999975e+00 1.924563638044000102e+00 2.002360830414000148e+00 5.917594018165999614e+00 5.872739918467999587e+00 6.179176103747000326e+00 1.834028530789000078e+00 1.919090917866999924e+00 6.055247291145000155e+00 2.051476971277999883e+00 5.884517470463999977e+00 5.891431628099000228e+00 5.851274171598999985e+00 2.001171922236999912e+00 5.995296625904000365e+00 6.014583138963000231e+00 5.975122618474999925e+00 1.588672097457999977e+00 1.999428749213000067e+00 7.909189158030000222e+00 7.956155570317999803e+00 2.118594156138999818e+00 2.274424412835000187e+00 1.862797059980999981e+00 3.277366197699999734e-02 1.863508824556999954e+00 2.117137743495999924e+00 1.857812498326000039e+00 3.999357086205999945e+00 1.630115917700000056e-02 1.840248150375999980e+00 5.735335727537999695e+00 2.064264223999999981e+00 7.924928907974999603e+00 6.136436230238000000e+00 1.897827077460999989e+00 5.944915209937000178e+00 2.696715301999999884e-02 9.103024920999999714e-03 5.974735736017000143e+00 2.112624911110000170e+00 1.802854648697999940e+00 3.982682790152999974e+00 2.068623643032999837e+00 2.041480142471999937e+00 6.208612922077000107e+00 4.037138630983999832e+00 7.903856795191999574e+00 6.034077751999999961e+00 5.981605371126000215e+00 1.780820266841000032e+00 3.990480150366999990e+00 5.773262887801999810e+00 6.234547750407999800e+00 1.650363048872999894e+00 7.941875497497999703e+00 3.940300076804000184e+00 2.164962050411999961e+00 1.880801878533000071e+00 6.022272120859000211e+00 1.701916104300000079e-02 2.230252139350000107e+00 5.755374950408000068e+00 1.919351375536000104e+00 4.036426755436999692e+00 3.919805648961999900e+00 2.103915674456000140e+00 6.136879849159999623e+00 5.606403479133000189e+00 7.831527682811000091e+00 5.821424247430000420e+00 6.013310822930000299e+00 6.092941448244999947e+00 5.163557806800000288e-02 3.991106827573000171e+00 5.933503210039999587e+00 2.106488401888999995e+00 6.095789876811999797e+00 3.945516398630999788e+00 1.909349216065000077e+00 6.040621136283999881e+00 5.807174062272999926e+00 3.944669403635999938e+00 4.012985173196000233e+00 5.756392358340000293e+00 5.919892050138000350e+00 6.129887785250000221e+00 3.915224046610000119e+00 6.181821107702999640e+00