-3.056835638349999863e+04
-3.056766229469999962e+04
-3.056739089560000139e+04
-3.056750756600000022e+04
-3.056723316429999977e+04
-3.056725406749999820e+04
-3.056712399759999971e+04
-3.056739266960000168e+04
-3.056732063099999868e+04
-3.056743559380000079e+04
-3.056722343230000115e+04
-3.056712645239999983e+04
-3.056706417869999859e+04
-3.056670741619999899e+04
-3.056626082870000027e+04
-3.056670107479999933e+04
-3.056674106269999902e+04
-3.056641146799999842e+04
-3.056605315569999948e+04
-3.056597779449999871e+04
-3.056573815040000045e+04
-3.056554735929999879e+04
-3.056472659220000060e+04
-3.056546693529999902e+04
-3.056592189789999975e+04
-3.056564243160000115e+04
-3.056569881349999923e+04
-3.056561844439999913e+04
-3.056536227940000026e+04
-3.056647650090000025e+04
-3.056603798810000080e+04
-3.056623952170000121e+04
-3.056615448749999996e+04
-3.056634209180000107e+04
-3.056651997810000103e+04
-3.056642105889999948e+04
-3.056638272969999889e+04
-3.056688388489999852e+04
-3.056696768679999877e+04
-3.056700106679999953e+04
-3.056721511330000067e+04
-3.056725380919999952e+04
-3.056755791360000148e+04
-3.056764041699999871e+04
-3.056759325560000070e+04
-3.056751935869999943e+04
-3.056762721460000103e+04
-3.056742578969999886e+04
-3.056735618850000174e+04
-3.056745516520000092e+04
-3.056779282500000045e+04
-3.056778142369999841e+04
-3.056784953890000179e+04
-3.056749466290000055e+04
-3.056747877589999916e+04
-3.056756409379999968e+04
-3.056754610980000143e+04
-3.056708128339999894e+04
-3.056731542759999866e+04
-3.056711172689999876e+04
-3.056703771449999840e+04
-3.056690351620000001e+04
-3.056711171090000062e+04
-3.056688536480000039e+04
-3.056665433399999893e+04
-3.056643116129999908e+04
-3.056629348490000120e+04
-3.056632024309999906e+04
-3.056590397339999981e+04
-3.056619796019999922e+04
-3.056597926690000168e+04
-3.056607292370000141e+04
-3.056527527499999997e+04
-3.056564086569999927e+04
-3.056520650340000066e+04
-3.056563137959999949e+04
-3.056572122020000097e+04
-3.056598249999999825e+04
-3.056627223339999910e+04
-3.056623056260000158e+04
-3.056568812619999881e+04
-3.056592490230000112e+04
-3.056605688630000077e+04
-3.056611941070000103e+04
-3.056656520620000083e+04
-3.056650455430000147e+04
-3.056659367610000118e+04
-3.056684552930000063e+04
-3.056704242570000133e+04
-3.056738475839999955e+04
-3.056744974379999985e+04
-3.056749804940000104e+04
-3.056753455079999912e+04
-3.056742763280000145e+04
-3.056770787729999938e+04
-3.056759976309999911e+04
-3.056740632629999891e+04
-3.056746447210000042e+04
-3.056755760889999874e+04
-3.056754907810000077e+04
-3.056758057360000021e+04
-3.056768428330000097e+04
-3.056789312580000114e+04
-3.056761783320000177e+04
-3.056764727380000113e+04
-3.056757201640000130e+04
-3.056763855350000085e+04
-3.056747251659999893e+04
-3.056757112670000060e+04
-3.056763090329999977e+04
-3.056732827080000061e+04
-3.056715555630000017e+04
-3.056676632880000034e+04
-3.056680575740000131e+04
-3.056646537739999985e+04
-3.056633325830000103e+04
-3.056626612139999997e+04
-3.056597681500000181e+04
-3.056627842059999966e+04
-3.056611335189999954e+04
-3.056630189959999916e+04
-3.056603913029999967e+04
-3.056642774730000019e+04
-3.056606441909999921e+04
-3.056581091609999930e+04
-3.056524858759999915e+04
-3.056545374050000100e+04
-3.056592897259999881e+04
-3.056559382289999849e+04
-3.056514200310000160e+04
-3.056542996359999961e+04
-3.056608984770000097e+04
-3.056595650569999998e+04
-3.056602355660000103e+04
-3.056613348440000118e+04
-3.056647613819999970e+04
-3.056669011730000057e+04
-3.056678332579999915e+04
-3.056709443969999847e+04
-3.056709287490000133e+04
-3.056727494339999976e+04
-3.056735709979999956e+04
-3.056724299009999959e+04
-3.056733485229999860e+04
-3.056759531620000052e+04
-3.056766292439999961e+04
-3.056745082239999829e+04
-3.056743003820000013e+04
-3.056752737089999937e+04
-3.056752600289999828e+04
-3.056765825519999999e+04
-3.056768779930000164e+04
-3.056748710080000092e+04
-3.056750294090000170e+04
-3.056755365600000005e+04
-3.056754892109999855e+04
-3.056738305140000011e+04
-3.056727613130000100e+04
-3.056759001599999829e+04
-3.056777000960000078e+04
-3.056756522639999821e+04
-3.056711037159999978e+04
-3.056692946819999997e+04
-3.056686428579999847e+04
-3.056674543990000166e+04
-3.056663810989999911e+04
-3.056656034079999881e+04
-3.056647410569999920e+04
-3.056598218590000033e+04
-3.056575436849999824e+04
-3.056593188010000085e+04
-3.056585433299999931e+04
-3.056624184189999869e+04
-3.056574676190000173e+04
-3.056533062269999937e+04
-3.056536206569999922e+04
-3.056608162639999864e+04
-3.056584002849999888e+04
-3.056577826750000168e+04
-3.056589268520000041e+04
-3.056590276539999832e+04
-3.056571010849999948e+04
-3.056553927649999969e+04
-3.056571198530000038e+04
-3.056656872989999829e+04
-3.056681706889999987e+04
-3.056645823680000103e+04
-3.056648483489999853e+04
-3.056671649569999863e+04
-3.056701689220000117e+04
-3.056707631860000038e+04
-3.056735360569999830e+04
-3.056723840859999837e+04
-3.056724026310000045e+04
-3.056724564620000092e+04
-3.056744864779999989e+04
-3.056737068799999906e+04
-3.056762112909999996e+04
-3.056734890589999850e+04
-3.056765034830000150e+04
-3.056746959870000137e+04
-3.056764308119999987e+04
-3.056746686929999851e+04
-3.056758622729999843e+04
-3.056740977059999932e+04
-3.056776815319999878e+04
-3.056748948739999832e+04
-3.056739384440000140e+04
-3.056721445590000076e+04
-3.056737228740000137e+04
-3.056678843449999840e+04
-3.056722106500000154e+04
-3.056703226699999868e+04
-3.056724178609999944e+04
-3.056688266419999854e+04
-3.056679330100000152e+04
-3.056630855109999902e+04
-3.056632763820000037e+04
-3.056613390449999861e+04
-3.056644580929999938e+04
-3.056600303880000138e+04
-3.056610723729999881e+04
-3.056579903360000026e+04
-3.056585644749999847e+04
-3.056526935969999977e+04
-3.056546721569999863e+04
-3.056591418730000078e+04
-3.056590644930000053e+04
-3.056578791479999927e+04
-3.056610423470000023e+04
-3.056572815020000053e+04
-3.056570607599999857e+04
-3.056580625059999875e+04
-3.056606316910000169e+04
-3.056672884459999841e+04
-3.056677419590000136e+04
-3.056645334820000062e+04
-3.056661161250000077e+04
-3.056672965760000079e+04
-3.056714089550000062e+04
-3.056740452300000106e+04
-3.056739316160000089e+04
-3.056719526979999864e+04
-3.056710412960000031e+04
-3.056699832460000107e+04
-3.056727354679999917e+04
-3.056749885749999885e+04
-3.056788363409999874e+04
-3.056746471200000087e+04
-3.056734929320000083e+04
-3.056740998549999858e+04
-3.056763917099999890e+04
-3.056752534309999828e+04
-3.056764236969999911e+04
-3.056741083100000105e+04
-3.056728492929999993e+04
-3.056714943290000156e+04
-3.056744252179999967e+04
-3.056708343890000106e+04
-3.056707135959999869e+04
-3.056730500229999961e+04
-3.056731447570000091e+04
-3.056707087519999914e+04
-3.056674799319999875e+04
-3.056669544440000027e+04
-3.056646730970000135e+04
-3.056646929309999905e+04
-3.056608915200000047e+04
-3.056617259570000169e+04
-3.056616274590000103e+04
-3.056646001510000133e+04
-3.056567084999999861e+04
-3.056558237229999941e+04
-3.056558693960000164e+04
-3.056569448570000168e+04
-3.056568643860000157e+04
-3.056538592580000113e+04
-3.056550657729999875e+04
-3.056582751990000179e+04
-3.056584378250000009e+04
-3.056588393219999853e+04
-3.056549839570000040e+04
-3.056602747879999879e+04
-3.056625271820000125e+04
-3.056677793000000020e+04
-3.056656616840000061e+04
-3.056651289719999841e+04
-3.056656044489999840e+04
-3.056675786579999840e+04
-3.056672970340000029e+04
-3.056703496660000019e+04
-3.056731073670000114e+04
-3.056738018129999909e+04
-3.056724915989999863e+04
-3.056728610109999863e+04
-3.056749414160000015e+04
-3.056744203399999969e+04
-3.056740802959999928e+04
-3.056733723749999990e+04
-3.056743010549999963e+04
