-1.315135500290000037e-01 -4.436248808300000124e-02 -2.720813753299999860e-02 -1.470536358500000064e-02 -5.003322943999999849e-03 -2.091182370980000094e-01 1.316603613070000123e-01 4.281312961500000069e-02 2.983958356000000062e-02 -1.869434301219999872e-01 3.338931370909999918e-01 -2.817409901900000055e-02 -3.060973258000000089e-03 -1.093735546610000026e-01 -4.309893579999999821e-03 3.693367738600000089e-02 9.010335025599999770e-02 -7.933666576000000109e-03 9.778586684800000262e-02 1.033358371120000063e-01 -1.287019195199999924e-02 6.451121030400000511e-02 -1.347003530270000082e-01 1.489612764280000001e-01 -4.070734642080000021e-01 4.316620129820000207e-01 2.948340658199999909e-01 1.464135259359999885e-01 -3.481683929659999954e-01 -1.199842423069999997e-01 1.814984572300000140e-02 -6.143628679439999685e-01 -4.261976423600000174e-02 -1.357123204469999900e-01 1.197754880480000061e-01 1.033184147570000017e-01 5.953324745750000480e-01 -1.089520739900000021e-02 -1.029329682479999952e-01 -2.316632369080000031e-01 -5.362518041780000022e-01 -8.907997503499999470e-02 -6.530205175200000378e-02 -2.639666272199999927e-02 9.293939599849999622e-01 1.414222905189999879e-01 6.754127341350000258e-01 -9.225097727929999492e-01 -1.716330247669999864e-01 -1.034102154240000015e-01 -5.125927466099999830e-01 -1.284658856489999945e-01 1.997900542500000154e-02 7.234446930299999468e-02 -1.511396230199999954e-02 2.667531950129999885e-01 4.758058393399999808e-02 -6.265759767000000056e-03 -9.269138964900000555e-02 7.359133629799999854e-01 2.037117139790000087e-01 1.293973291249999880e-01 9.823604353000000428e-03 -8.680995852799999746e-02 7.404942686069999613e-01 1.864762932600000020e-02 1.921778158159999916e-01 1.255673269429999905e-01 7.923566711299999676e-01 -4.933516648679999728e-01 1.817262189599999980e-02 -3.496499689000000244e-02 -5.469743048899999849e-02 -2.801733092759999821e-01 -7.865616331199999645e-02 9.636581821999999284e-03 3.614235173579999905e-01 -1.103846505042000103e+00 -7.608153793300000134e-02 2.046960399380000073e-01 -2.342393770699999905e-02 3.212849740229999917e-01 -1.485086805946000066e+00 9.048281834400000168e-02 7.049130280000000422e-03 7.189159016200000196e-02 -5.182336069900000258e-02 4.501310074989999799e-01 4.986810503499999880e-02 1.531073441799999935e-01 4.551191944900000175e-02 5.242997871410000066e-01 -1.557592582879999965e-01 2.945312040549999955e-01 1.212139079899999944e-01 -7.157132310529999986e-01 -9.248689647479999554e-01 4.413487355829999736e-01 5.125873565300000101e-02 2.808786106369999813e-01 6.082386262240000452e-01 2.734078892810000161e-01 5.703935120800000119e-02 3.219823219090000022e-01 7.875970957739999445e-01 -1.057754842360000003e-01 1.383110094389999878e-01 -1.906099701550000025e-01 1.141193523370000046e-01 -7.582693491340000147e-01 8.964724146499999935e-02 2.016944526829999862e-01 -1.925711847190000048e-01 -1.864069737469999932e-01 -2.843994644949999762e-01 -1.645091183419999936e-01 7.922462212700000228e-02 1.134621617040000030e-01 -1.034407050615000045e+00 -8.720127651900000387e-02
-2.836821724340000128e-01 -1.612479104400000099e-02 -1.363611318630000013e-01 -3.068898269499999859e-02 5.576548336400000139e-02 -4.295007981990000001e-01 3.435490015009999842e-01 4.512589372700000212e-02 9.271639820900000328e-02 -5.094864809700000441e-01 7.788986638329999934e-01 -1.035543741629999931e-01 -1.249768163500000057e-02 -1.997982530509999910e-01 4.280706197300000043e-02 7.580969495599999830e-02 1.219650940149999974e-01 -6.029606501999999583e-03 2.111921567110000009e-01 1.416231117550000029e-01 -6.348960500299999365e-02 9.043489627799999875e-02 -2.475362580019999925e-01 2.848003337030000082e-01 -9.507285390790000124e-01 7.920939527760000320e-01 4.641171971279999808e-01 4.045613212210000253e-01 2.157841330660000001e-01 -2.205607339239999964e-01 1.308752827859999968e-01 -1.209712723445000027e+00 -1.034747651579999983e-01 -3.263353339939999986e-01 2.154775644399999912e-01 2.775321185649999856e-01 1.134010416746999983e+00 -2.896867462499999948e-02 9.900371414299999340e-02 -4.487370223520000256e-01 -1.048025554967999984e+00 -2.271099202300000050e-02 -1.738613763229999998e-01 -2.548055156300000137e-02 1.932142644513000107e+00 3.549632450649999882e-01 1.333755241790000046e+00 -1.779173135169999975e+00 -3.732002022820000153e-01 -3.249441694710000217e-01 -3.250903728399999748e-01 2.617405812970000079e-01 6.059024321400000024e-02 1.147116378709999995e-01 -4.256199850799999990e-02 4.127629836580000156e-01 1.428940057639999928e-01 -4.794724152500000336e-02 -3.019455154239999994e-01 8.754014443759999820e-01 -3.250889973800000221e-01 2.662569296910000105e-01 -2.899480114900000044e-02 -1.783891890110000100e-01 -5.271723594910000532e-01 2.983187832900000003e-02 3.582038835510000241e-01 1.943174486900000053e-01 7.417644045290000543e-01 -1.001571250098000077e+00 -1.027070550600000035e-02 -5.681586351799999823e-02 -1.135019669629999950e-01 -4.192482712239999909e-01 -1.479173469129999863e-01 -6.527247192000000010e-03 7.342633937070000005e-01 -1.375576052024999996e+00 -9.675606485500000409e-02 2.832254285779999825e-01 -3.167722863200000266e-02 5.763713147879999665e-01 -1.458552373070000074e+00 2.068221898150000015e-01 2.165038410999999864e-03 7.695104999099999787e-02 -7.638407947440000179e-01 6.087982355619999675e-01 1.364604095139999862e-01 2.691749348510000250e-01 1.061565009649999974e-01 4.222542360900000125e-01 -2.955427496179999780e-01 6.706792868019999521e-01 1.274288612979999902e-01 -1.024701911406000088e+00 -1.091691835560999913e+00 8.360355601540000459e-01 9.148820291999999743e-02 5.434104075460000072e-01 3.395407976579999931e-01 5.346396135159999785e-01 7.584595365200000328e-02 6.167159430090000116e-01 7.193570034980000250e-01 -1.667389772110000057e-01 2.727483129689999841e-01 -3.916798917009999825e-01 2.362831428290000091e-01 -8.492488030050000525e-01 1.869838368729999922e-01 3.569809460069999774e-01 -3.449480105170000255e-01 2.856688999399999984e-01 -5.646611331790000188e-01 -4.178085411849999931e-01 1.372712754950000114e-01 2.026223865690000014e-01 -1.050255181398999982e+00 -2.224366414589999952e-01
-3.315484657910000021e-01 1.407045590019999903e-01 -2.974977640850000049e-01 -5.328078675799999969e-02 1.933081359369999974e-01 -5.290683849380000137e-01 5.720135522050000532e-01 -4.350255324900000053e-02 1.596713652310000064e-01 -8.282782648690000249e-01 1.077816052448999917e+00 -1.673170416829999896e-01 -3.602742973100000329e-02 -2.165958765690000065e-01 1.320095407109999897e-01 4.498367349299999679e-02 4.414883972900000147e-02 9.092965220000000584e-03 2.604435681719999840e-01 2.757014131200000162e-02 -1.200984534859999980e-01 -4.345756380500000182e-02 -2.329245881039999910e-01 3.440605500480000134e-01 -9.932606583399999911e-01 7.555273675820000090e-01 6.802562445069999519e-01 5.174367572160000206e-01 1.183196040159999907e+00 -4.989300454650000272e-01 -2.044543741959999883e-01 -1.120543019494999903e+00 -1.436226445319999934e-01 -5.254653960189999973e-01 -1.911819025429999930e-01 1.213132676979999935e-01 1.193533269912999906e+00 4.187527483200000067e-02 2.953842742300000213e-01 -4.430655302670000184e-01 -1.232347839038999915e+00 -3.048401845000000068e-02 -4.500425928799999670e-02 -5.013624768799999909e-02 2.207162165606999960e+00 4.261256837269999931e-01 1.288231430536999955e+00 -1.693838548820000067e+00 -4.963949491890000121e-01 -5.728509882100000228e-01 7.117382392740000396e-01 8.656381957359999824e-01 8.877522860400000049e-02 8.359315607799999714e-02 -1.254537074469999902e-01 -2.280651011599999986e-02 1.638166664039999998e-01 -5.000164699100000110e-02 -5.144039667369999513e-01 7.899558619799999792e-02 -9.538724107439999766e-01 1.679667264009999939e-01 -1.386854925040000019e-01 -2.306639670099999984e-01 -2.547447101424999971e+00 3.895858536900000113e-02 2.663191894990000197e-01 -1.676001212599999984e-02 -5.337397349620000009e-01 -5.902113395589999589e-01 -7.939055165199999931e-02 -6.535820546600000502e-02 -1.808149509439999914e-01 -6.401972004000000549e-02 -1.204436551510000009e-01 -1.112057023640000003e-01 5.778922670280000062e-01 2.356350807739999997e-01 1.230687351249999950e-01 -3.143503532900000091e-02 2.485496014599999914e-02 5.899863574010000278e-01 8.922343000319999939e-01 1.161616086780000029e-01 5.749126452400000337e-02 8.761594077999999841e-03 -1.149514004353999974e+00 -7.872689601099999712e-02 2.430784525580000077e-01 3.088747598289999785e-01 1.829210544210000122e-01 -5.450717231970000354e-01 -3.298274870640000023e-01 8.701550235449999615e-01 -1.535265621099999866e-01 -3.368035188419999937e-01 -1.310382153949999906e-01 7.514635420099999852e-01 -1.582598867939999931e-01 3.209838962459999889e-01 -8.098147089299999601e-01 4.708967179960000249e-01 1.639335070999999944e-03 6.421899068140000111e-01 -6.733656928729999658e-01 -1.302613425810000003e-01 2.431680549899999932e-01 -3.573966686050000230e-01 2.347516127560000110e-01 2.626321530969999984e-01 1.803266490719999948e-01 2.245101301499999868e-01 -3.041008458989999941e-01 1.186054238807999983e+00 -3.311816649000000057e-01 -5.822315238159999629e-01 7.656329199099999594e-02 1.616682229970000106e-01 7.005512091200000180e-01 -2.811686657949999946e-01
-2.758758852909999892e-01 2.150416773009999893e-01 -3.780269701219999834e-01 -1.061575661050000036e-01 2.100479099039999908e-01 -6.000325481110000414e-01 7.705645775170000267e-01 -2.868019046699999894e-02 1.797072898000000030e-01 -9.675898066320000046e-01 1.230369362088999940e+00 -1.360590907170000086e-01 -2.726770683499999889e-02 -3.477567396239999997e-01 1.610863137000000112e-01 -6.181032332900000120e-02 7.205410976499999898e-02 -3.846584539700000083e-02 2.525190602599999834e-01 -5.588622828200000281e-02 -8.176621935700000010e-02 -3.119224960959999793e-01 -2.519695647610000200e-01 4.112431187310000014e-01 -9.117947652650000290e-01 1.510961552669999874e-01 6.607727141020000028e-01 2.401180503939999988e-01 -5.205049858660000250e-01 -6.158614531830000072e-01 -5.737994213960000423e-01 -5.373515469140000000e-01 -3.013362629269999982e-01 -4.188884128829999942e-01 9.582622021890000452e-01 2.550137614860000235e-01 1.236246585798000064e+00 -5.001229363200000028e-02 -1.168022938789999993e-01 1.374440324070000108e-01 -4.877952894989999733e-01 5.410309141900000035e-02 3.345555039309999756e-01 -1.156529071900000080e-02 1.291165532776000102e+00 4.550575282889999795e-01 5.780373923639999800e-01 -1.162512273194000079e+00 -4.730660915659999910e-01 -8.090633825149999847e-01 3.820094397659999919e-01 3.133708654280000228e-01 8.805978148300000474e-02 -1.681568148619999870e-01 -1.840279885459999987e-01 -3.841876775249999931e-01 1.777541494850000126e-01 -9.288548329800000447e-02 -5.351782911419999955e-01 -6.477789034500000542e-02 -1.564621952380000069e-01 2.277194830399999897e-02 -2.614740545690000251e-01 -3.333882053819999802e-01 1.411401401850000126e-01 2.809763869499999900e-01 -2.424281154900000124e-02 -3.323886629669999815e-01 -5.199535885339999775e-01 1.693114779219999921e-01 -1.893599553199999952e-01 -1.115797515099999949e-02 -2.221547500740000125e-01 3.125382653200000083e-01 7.558313404199999697e-02 -1.915634354530000028e-01 9.570075461900000302e-02 6.494685768100000312e-01 2.737102623329999984e-01 -5.266973919909999635e-01 6.356997104700000401e-02 3.475725969830000261e-01 4.687821568630000102e-01 4.768645131100000129e-02 -1.784278530099999913e-02 6.375718796099999475e-02 2.209654265600000111e-01 -1.370753476849999875e-01 2.853299423660000111e-01 2.921432907959999881e-01 3.317769514389999896e-01 -5.649082349289999971e-01 -3.170833881899999818e-01 7.305971486940000537e-01 -4.752666036880000000e-01 9.504804741899999798e-02 5.818980883699999967e-02 2.787879440809999942e-01 -5.029268189529999544e-01 -2.354462168170000091e-01 -3.372863769869999806e-01 8.324143070999999450e-02 -1.850031828579999926e-01 4.694560493850000182e-01 -3.731611263610000173e-01 -3.411039739399999993e-02 3.904324788800000307e-02 -9.926200193900000524e-02 2.196661563760000102e-01 6.600236266829999643e-01 9.353526368600000029e-02 -1.221147484589999999e-01 -4.408130598599999811e-02 7.296263949360000112e-01 1.985078819420000029e-01 -6.094246085150000214e-01 -1.164805516889999976e-01 -4.718465098999999850e-03 7.590647673110000326e-01 -3.394026180540000159e-01
-1.965368180219999872e-01 2.144387464230000095e-01 -3.891583063540000054e-01 -1.632756170449999877e-01 1.463231304750000072e-01 -5.820907217880000317e-01 8.381158483939999959e-01 4.140087972999999949e-02 1.768443487370000011e-01 -8.483162848199999884e-01 1.067069924057000074e+00 -3.105844908699999934e-02 1.981074705999999984e-03 -5.174535706170000360e-01 1.762504169019999956e-01 -1.721831236910000007e-01 1.919734661560000000e-01 -1.396139424339999935e-01 2.469483763220000072e-01 -1.065917818149999946e-01 3.731071656700000322e-02 -5.573091483630000509e-01 -2.671162848020000036e-01 4.121176319379999953e-01 -7.136068407440000483e-01 -7.565800658979999760e-01 2.415137940410000128e-01 -1.530715679390000084e-01 -1.082746502143999923e+00 -3.426648709590000008e-01 -5.202594326320000295e-01 2.721463661169999937e-01 -3.144695626890000040e-01 -1.506042583749999941e-01 1.857576384769000111e+00 3.737841226299999930e-01 9.589966935570000128e-01 -5.625359281000000267e-02 -7.623986713100000534e-02 8.541851632269999994e-01 8.785908613370000397e-01 -1.200389713799999980e-02 6.019360847910000256e-01 6.329110586599999422e-02 -3.555553372870000062e-01 3.119042189890000039e-01 -1.033337093602999968e+00 9.765498275400000261e-02 -1.566681788079999915e-01 -8.775240440399999509e-01 -3.826986371769999784e-01 -6.065439603819999803e-01 9.351295598099999828e-02 -3.888244999830000048e-01 -1.525844856849999931e-01 -2.499171641700000113e-01 1.783261228540000132e-01 -1.529087478470000094e-01 -4.343214606290000113e-01 3.001015535000000137e-02 5.793248465860000307e-01 -8.002819836900000594e-02 -2.724460307609999909e-01 -1.980192786090000101e-01 2.484483232129000019e+00 4.358075685539999911e-01 -3.032123054950000007e-01 -4.897820160490000130e-01 3.539859406020000043e-01 6.685658821440000343e-01 -3.037937739350000110e-01 1.417940612049999882e-01 -1.981243450909999926e-01 1.637599966670000018e-01 2.897460221570000161e-01 -2.206742705399999949e-01 -3.457687384909999828e-01 5.639615692799999913e-02 2.064457228699999869e-01 -6.895445827939999939e-01 2.765842389900000087e-02 -1.871357479899999829e-02 -1.106488182784000074e+00 1.206040921700000067e-02 -1.375813137490000115e-01 2.075589231799999934e-01 1.389082624398999988e+00 1.374592552989999938e-01 2.187239569870000067e-01 2.975543471909999904e-01 4.557928334410000226e-01 2.883072189349999981e-01 -2.524960189620000239e-01 2.870059246100000183e-01 -4.796061509169999848e-01 1.917421180930000135e-01 1.541850259529999878e-01 -2.961112771509999964e-01 -6.511273807659999635e-01 -6.612499816789999540e-01 1.413125673352999989e+00 -3.512215983779999884e-01 -3.436587584879999824e-01 2.114450979389999874e-01 7.516236604060000381e-01 5.970820219000000373e-03 -2.315668958250000076e-01 3.006090770409999835e-01 2.762574982550000113e-01 1.523462069640000027e-01 4.176692954999999818e-02 -3.446243256079999928e-01 2.849674413330000045e-01 -7.971542897300000208e-01 5.910627748350000266e-01 -3.456022575170000222e-01 -3.308695230229999895e-01 -2.064114257890000137e-01 -5.009079340359999799e-01 -3.439466973709999764e-01
-1.557118378919999935e-01 2.748119625409999878e-01 -4.086237086360000048e-01 -1.587309999959999884e-01 1.760075817529999920e-01 -3.983430904660000271e-01 7.841869153939999837e-01 -4.404698315000000336e-02 2.115545381639999944e-01 -6.433497400450000070e-01 6.082079311100000441e-01 2.789506736099999981e-02 1.898769454999999938e-03 -5.118342957270000104e-01 2.377729854429999901e-01 -1.852758180340000060e-01 2.001842997770000021e-01 -1.814058754320000133e-01 2.782858087810000103e-01 -2.105502294580000044e-01 9.647552647399999792e-02 -6.052601998369999681e-01 -1.641011779850000130e-01 2.956889517660000188e-01 -1.827971664389999862e-01 -1.421546238801999928e+00 -2.539417446430000114e-01 -5.968747392859999890e-01 1.918302041500000166e-02 1.161546179449999966e-01 -3.421983665839999911e-01 9.122650524959999840e-01 -1.018435772730000022e-01 2.716643672530000275e-01 6.355769426849999792e-01 1.704110773660000022e-01 1.700147668499999987e-01 2.060961409799999880e-02 5.710502716359999731e-01 1.212827173096000077e+00 1.195060221230999975e+00 -4.594102968770000239e-01 4.645148039770000126e-01 1.593654174839999882e-01 -1.469433333995999957e+00 -1.172401550530000058e-01 -1.345729456763000043e+00 1.420222796200000026e+00 3.126022759320000177e-01 -5.760935223169999508e-01 -2.651117905179999901e-01 -4.422688404199999757e-01 1.044216545139999980e-01 -3.159266566650000274e-01 -3.657153385399999901e-02 -1.726120657099999844e-02 1.261463557059999963e-01 -2.046813175080000047e-01 -2.228227434760000070e-01 -4.545891680390000134e-01 4.516206059199999734e-01 -8.042279851000000424e-02 -8.955793685799999515e-02 3.652601955399999850e-02 9.025901651350000110e-01 3.587070905890000216e-01 -3.668134905450000094e-01 -3.360926640860000258e-01 2.340304617400000009e-01 7.540028347920000318e-01 -3.109645741850000089e-01 2.521435688620000115e-01 -1.122709983739999945e-01 -4.526552582830000171e-01 3.527528673009999727e-01 -1.461980577130000125e-01 -5.474753166289999529e-01 3.521857861300000114e-01 -2.370002638360000080e-01 -4.413000661159999782e-01 -1.487449574999999934e-02 -1.965247889220000099e-01 3.310689551809999909e-01 -3.539264100000000279e-05 -1.407786982249999985e-01 3.481305440649999916e-01 7.616212231960000079e-01 -2.493952280260000043e-01 7.485569557400000018e-02 2.978272908949999853e-01 4.150897985529999890e-01 5.857393115869999889e-01 -2.560536323200000158e-02 -2.727026688979999891e-01 -6.763249985199999703e-02 4.859276273250000000e-01 7.590237233500000125e-01 -6.268394404649999530e-01 -4.880645971020000085e-01 -6.379234334429999542e-01 6.257682764640000173e-01 -4.940885722439999905e-01 -2.531912030969999949e-01 -9.250611426999999498e-02 3.401146855809999980e-01 6.843562519199999916e-02 -3.660813692209999859e-01 5.821514096919999659e-01 3.060088625699999842e-01 1.205555117500000002e-02 3.153463092699999859e-02 -2.817891669750000050e-01 6.191742463849999600e-01 -1.376611593792999910e+00 5.103811740899999450e-01 2.625777920180000224e-01 -4.433797818060000173e-01 -2.315348117580000031e-01 -2.316982798220000028e-01 -8.152185433000000425e-02
-1.603472839029999875e-01 2.755515107639999739e-01 -3.843390916400000190e-01 -1.117818249689999932e-01 2.449152335210000031e-01 -1.363801291320000109e-01 6.800541190479999498e-01 -2.110242301359999961e-01 2.291967314570000080e-01 -4.808800309510000148e-01 1.613901942909999887e-01 -3.416605513000000195e-03 -7.304208262599999613e-02 -4.239290930090000020e-01 3.040614836889999895e-01 -1.053499056289999986e-01 1.091660708050000012e-01 -1.451031979490000068e-01 2.885256607239999882e-01 -2.342238861950000084e-01 7.187131837599999851e-02 -4.680394106110000174e-01 -4.693131928000000147e-02 1.594503604689999909e-01 2.735676792910000099e-01 -1.407483921025999951e+00 -6.918065167039999519e-01 -6.737797612079999832e-01 2.698577891063000056e+00 5.829714081419999916e-01 -1.477904419640000133e-01 9.374095300260000263e-01 2.790014971170000080e-01 7.114160205830000194e-01 -7.291240928119999687e-01 -2.812158464360000054e-01 -1.069769388000000099e+00 1.965461441109999929e-01 1.888021435483999921e+00 9.835521884200000287e-01 5.899096492009999748e-01 -9.423794057809999902e-01 5.827142829999999718e-02 2.145376491600000102e-01 -1.499243123447999926e+00 -7.854973518910000063e-01 -7.285151393950000109e-01 1.248675762581000104e+00 7.205834729419999807e-01 -1.150683491899999987e-02 -3.235888596099999875e-02 5.062547086580000411e-01 9.095557367199999521e-02 -1.708759869200000142e-02 6.058630035299999994e-02 -2.784441036490000188e-01 8.588453686999999656e-03 -2.601070643669999849e-01 -4.475322755899999866e-02 -4.590127297320000244e-01 4.335927780939999865e-01 3.534571760199999718e-02 2.357454958340000073e-01 2.027425868059999914e-01 -2.894502631307000140e+00 4.864571849799999986e-02 -1.957100674099999937e-01 -5.334586887300000330e-02 -1.927352113199999883e-01 3.998588901590000022e-01 -1.597126462150000037e-01 1.352196676079999993e-01 8.279861250099999903e-02 -6.495352514569999736e-01 2.445696544300000053e-01 -2.593924439199999862e-02 -5.277849027750000088e-01 8.600867783590000482e-01 -7.194818387879999833e-01 -2.386366461999999897e-02 -9.483759394999999315e-03 -2.431752940770000038e-01 1.652766518828999942e+00 1.227595989999999936e-02 -3.558990805799999713e-02 3.323142368099999966e-01 -1.301181249647999971e+00 -4.550001857339999733e-01 -8.711935942000000044e-02 1.667388461140000000e-01 2.272732903480000066e-01 2.282408636599999874e-01 1.873908778939999964e-01 -6.041717856149999566e-01 4.456883757039999949e-01 4.874500178939999984e-01 6.723086413959999952e-01 -7.006133436970000128e-01 -2.084804978470000125e-01 -2.288759691049999934e-01 -1.559698211489999986e+00 -3.061814490529999877e-01 3.881842982300000300e-02 -2.764803329339999838e-01 -7.275845472509999690e-01 1.765770190740000023e-01 -2.691337457090000052e-01 6.400852047289999902e-01 1.981123423750000001e-01 2.523016885830000056e-01 -5.213026376499999698e-02 -6.636667185899999821e-02 1.015225124884999941e+00 -3.706886257290000208e-01 2.065769345150000047e-01 8.063975042769999657e-01 -2.435016431819999883e-01 -1.077559225199999950e-02 1.030486329511000054e+00 2.142637059159999968e-01
-9.349679803499999498e-02 4.028860285599999980e-02 -1.705525215990000010e-01 -7.013278898199999667e-02 2.035265258789999976e-01 4.496527753000000190e-03 5.836702256539999523e-01 -2.397081398139999930e-01 1.540094156150000060e-01 -3.095321242810000206e-01 -4.388823058599999882e-02 -7.152441087300000222e-02 -1.714796789730000104e-01 -4.637718595859999793e-01 2.368391258950000022e-01 -4.269391448200000189e-02 8.049422467500000344e-02 -1.117527856790000024e-01 2.578656724439999937e-01 -1.575612050800000163e-02 4.732226748400000099e-02 -3.134679585719999939e-01 -8.703880296700000629e-02 1.636692291140000033e-01 2.070768813980000123e-01 -6.683090800059999781e-01 -1.010091146146999908e+00 -3.256458757060000098e-01 1.039354960887999946e+00 3.562969545690000128e-01 4.318731990879999816e-01 4.520087984510000045e-01 4.313997910399999802e-01 7.358816490499999752e-01 3.053316460500000162e-01 -5.899826264619999483e-01 -1.696829764897000103e+00 2.385892922879999933e-01 1.507647602722999913e+00 5.803970366370000411e-01 2.566557574800000241e-01 -2.334996588440000076e-01 -3.657631968369999820e-01 1.542730675300000021e-01 -9.615072939879999447e-01 -1.001123306366999977e+00 -5.610541412170000353e-01 5.254296747910000009e-01 1.023212601368999941e+00 5.822521735419999844e-01 -1.981115230759999957e-01 3.767611084709999725e-01 -7.875084528900000436e-02 1.197637390410000030e-01 1.392329665370000136e-01 -7.275352764420000007e-01 -1.275087795969999938e-01 -2.231110501939999879e-01 6.384397055000000376e-02 6.143096209730000146e-01 5.949068295889999858e-01 2.303508920579999952e-01 3.332411218129999741e-01 2.969993848040000106e-01 -8.564783583499999686e-01 -2.624743494499999844e-02 6.911033286699999612e-02 2.755723530500000032e-02 4.713335855890000148e-01 -4.299353832150000221e-01 7.583672138699999732e-02 -6.715622036099999637e-02 3.322999749689999893e-01 -3.814162059149999728e-01 7.390266851900000045e-02 2.504837905200000062e-02 -4.381223410739999991e-01 1.668662226600000076e-01 -4.880994277419999916e-01 2.497873457310000045e-01 2.720608548400000118e-02 -1.524553465940000074e-01 -6.780677986900000009e-01 1.069535450269999965e-01 -1.376480245400000038e-02 4.136150875919999970e-01 -1.231440872505999984e+00 3.837990715219999904e-01 -3.543011697810000138e-01 -1.029883658569999971e-01 8.402076834600000210e-02 2.116251616220000131e-01 1.762728989590000017e-01 -5.515791392100000134e-01 7.646144586230000373e-01 -4.931503321380000249e-01 -5.153980470610000086e-01 -5.603623831059999505e-01 -3.213918392999999801e-03 2.709622481610000078e-01 -8.332956352810000356e-01 -6.372536676899999419e-02 2.717652885840000088e-01 -3.468742706069999904e-01 -6.749121227030000503e-01 2.399623056690000089e-01 -5.778604194999999860e-02 4.225066064929999810e-01 7.532892549000000382e-02 -3.513146449300000307e-02 -1.638900413440000092e-01 1.212074236159999957e-01 9.187328603759999934e-01 1.253405778299999940e-02 -5.063312205590000392e-01 7.532418484399999725e-01 1.706960212749999983e-01 1.694575508429999877e-01 3.656675343360000219e-01 1.785586586809999876e-01
1.930251216399999845e-02 -2.531406162509999835e-01 1.461584637739999915e-01 6.075745520000000108e-04 1.413901864919999973e-01 4.203311401999999808e-02 4.340972360149999987e-01 -2.451677866900000002e-01 1.207607840199999977e-02 -1.260072822920000057e-01 -2.079787291469999966e-01 -1.281789743189999942e-01 -2.440357637530000123e-01 -4.505085840729999846e-01 9.109561058399999467e-02 4.598079011999999660e-03 7.679496871799999791e-02 -1.046325721039999962e-01 2.630632621960000139e-01 2.536314276489999853e-01 1.751108281699999963e-02 -1.625339577899999888e-01 -1.355602478279999967e-01 2.369258498800000112e-01 1.842151916860000072e-01 2.265934218779999954e-01 -5.825419012120000017e-01 1.157724608029999935e-01 -8.224743524669999584e-01 -4.907042856600000169e-01 1.040522613650999961e+00 -2.735069470109999790e-01 2.711679351899999937e-02 5.579636307259999706e-01 1.291185553070000047e+00 -2.210425683289999887e-01 -1.500944679515000102e+00 3.671777221899999999e-01 -2.649896609629999733e-01 2.388214077249999900e-01 2.456618691319999992e-01 9.060178081149999896e-01 -3.955185308770000074e-01 -5.459862956799999695e-02 -2.379469368000000085e-01 -5.980645215240000256e-01 -4.764856908199999741e-01 3.484065589500000282e-02 9.067573917850000331e-01 8.393516587560000408e-01 5.010303660079999943e-01 -5.069757453130000480e-01 -4.723275820300000261e-01 1.519809682000000097e-03 2.505977056479999909e-01 -4.231570936199999799e-01 -1.284880559949999890e-01 -7.423006608599999612e-02 3.100247068499999842e-02 5.168671530370000378e-01 -1.617585417530000014e-01 3.198210808060000243e-01 2.140141015979999950e-01 1.928538444950000097e-01 1.618864018470000055e+00 -4.672881230900000071e-02 1.893393416149999897e-01 -7.767656704400000001e-02 1.099347214465000055e+00 -1.017900330590000069e+00 1.996668091290000058e-01 -1.459395707979999901e-01 5.492309525870000542e-01 -2.242410133620000023e-01 -2.488479537800000058e-02 -1.327932669099999956e-02 -2.463769348460000119e-01 -9.835897123969999933e-01 4.481904354069999874e-01 2.983735031110000269e-01 4.369117701599999765e-02 -7.418087635799999746e-02 -2.486659516233999945e+00 2.929080148479999979e-01 -3.999683989700000136e-02 5.238629003060000233e-01 5.461566479030000032e-01 9.265502271490000386e-01 -6.107268882390000098e-01 -2.946066392630000141e-01 -7.346435115999999654e-02 2.043199770580000074e-01 -1.251436321849999922e-01 -1.959557360049999919e-01 7.766035825720000174e-01 -1.230702829641999951e+00 -7.659232194259999460e-01 -2.520685266969999727e-01 2.054975308110000010e-01 6.370338640529999985e-01 1.291644607267999900e+00 -3.890832822200000068e-02 2.340986727319999960e-01 -2.768134697379999731e-01 3.783408131899999860e-02 6.106300082300000071e-02 1.625168731030000036e-01 -5.211945009000000344e-03 -1.128720406820000050e-01 -3.399156506409999889e-01 -2.364935076099999867e-01 1.462676778339999928e-01 4.286204410669999798e-01 -4.926479913199999922e-02 -1.445217385617999950e+00 2.133997893990000061e-01 5.053897228749999471e-01 1.079121126739999992e-01 -1.181098034554999954e+00 -1.380317492410000069e-01