-3.357519324983775921e-01 1.719340728333612067e-01 -6.958324144692340507e-02 1.719340728333612067e-01 3.052462967444226627e-01 -7.160897337179689126e-02 -6.958324144692340507e-02 -7.160897337179689126e-02 4.059582351478862039e-01
2.143213627729165349e+00 2.120311233601246959e-01 -2.883158681463877659e-01 2.120311233601246959e-01 3.985778408308283005e+00 -1.989669078908228306e-01 -2.883158681463877659e-01 -1.989669078908228306e-01 3.467523657148368521e+00
9.089502656396352132e-01 -9.400727176568344362e-03 -4.698346085411695405e-01 -9.400727176568344362e-03 4.612017033677770605e+00 -5.617094616432111165e-02 -4.698346085411695405e-01 -5.617094616432111165e-02 1.179806245329410030e+00
-2.848107465339075883e+00 2.488011385100521722e-01 -7.536310960142241777e-01 2.488011385100521722e-01 6.655326763306168569e-01 -7.843125616368029629e-01 -7.536310960142241777e-01 -7.843125616368029629e-01 -4.462585153199638555e+00
-4.940309921990040820e+00 3.128968531481470805e-01 -9.578964923390018704e-01 3.128968531481470805e-01 -2.969518507184390477e-01 -1.516512933399596363e+00 -9.578964923390018704e-01 -1.516512933399596363e+00 -8.132932219986443556e+00
-5.456844168324060718e+00 1.909323057645187782e-01 -6.199817660163424726e-01 1.909323057645187782e-01 -1.179952923890245087e+00 -1.329145195107404698e+00 -6.199817660163424726e-01 -1.329145195107404698e+00 -8.396923272220563561e+00
-3.969967168456940865e+00 3.976565303172231447e-01 -1.592659738103961997e-01 3.976565303172231447e-01 1.604759668692131491e+00 -8.045370340837464385e-01 -1.592659738103961997e-01 -8.045370340837464385e-01 -5.159308039728073503e+00
-1.943034255079564288e+00 5.527377739622824082e-01 -2.061317094895045443e-01 5.527377739622824082e-01 -5.162063091378992635e-02 -3.887761488319165792e-01 -2.061317094895045443e-01 -3.887761488319165792e-01 -1.949671052259587478e+00
-4.809524035961960653e-01 8.516746040087664893e-01 -5.743809966546569168e-01 8.516746040087664893e-01 4.633398224163119694e-02 -1.382005467877355787e-01 -5.743809966546569168e-01 -1.382005467877355787e-01 -6.605477952686822363e-01
-1.452570580752353901e+00 1.355061435406729853e+00 -4.980359951118271122e-01 1.355061435406729853e+00 1.477268009136005089e+00 -4.360309446523213950e-02 -4.980359951118271122e-01 -4.360309446523213950e-02 -4.409816559934454649e-01
-1.890187112599870933e-01 1.006037664034014956e+00 2.409676136416049885e-01 1.006037664034014956e+00 6.134225920748429317e+00 6.162727574064909009e-01 2.409676136416049885e-01 6.162727574064909009e-01 -7.159671559863113321e-01
3.874492476151366827e+00 -1.087108377356021671e-01 1.165578013013170322e+00 -1.087108377356021671e-01 4.842066127767101769e+00 5.550573919355851205e-01 1.165578013013170322e+00 5.550573919355851205e-01 -2.152022886036718319e+00
8.585893342319259602e-01 7.323185044677480438e-01 1.701662142119772181e+00 7.323185044677480438e-01 6.354404402212352476e-01 7.143109504514428831e-01 1.701662142119772181e+00 7.143109504514428831e-01 -4.517782074153965155e+00
-2.218027814159687416e+00 1.542445413224263318e+00 1.910769501089004008e+00 1.542445413224263318e+00 -2.693117696624317770e+00 1.337696686536048229e+00 1.910769501089004008e+00 1.337696686536048229e+00 -5.817886892273246957e+00
-3.372004153738279886e+00 5.664267075045493760e-01 1.079536012844713566e+00 5.664267075045493760e-01 4.839001300807688755e-01 1.304767377438472931e+00 1.079536012844713566e+00 1.304767377438472931e+00 -1.774987022872813514e+00
-4.133230896198940130e+00 -4.463619779328205639e-01 2.350239627015547061e-01 -4.463619779328205639e-01 3.809538512173620273e+00 1.172444655770240596e+00 2.350239627015547061e-01 1.172444655770240596e+00 1.140178874115705288e+00
-4.463732335620534286e+00 -9.823942589881398124e-01 5.487502173303361250e-03 -9.823942589881398124e-01 3.271167384863466587e+00 5.786492872779533947e-01 5.487502173303361250e-03 5.786492872779533947e-01 1.471828738889328303e+00
-4.236621189188582548e+00 -1.318988286590814241e+00 -6.132571675817790613e-01 -1.318988286590814241e+00 -3.757216345819009540e+00 -6.405601779796885609e-01 -6.132571675817790613e-01 -6.405601779796885609e-01 -2.213026254384748981e+00
-7.277957268939879931e+00 -1.023624275857896615e+00 -2.574027613284105009e-01 -1.023624275857896615e+00 -7.806647768714654489e+00 -7.334750110602266115e-01 -2.574027613284105009e-01 -7.334750110602266115e-01 -5.487225402835077759e+00
-9.154876021996930291e+00 -5.748528056194743968e-02 -3.214179369016204740e-02 -5.748528056194743968e-02 -3.911182409818187988e+00 -8.377151091460570687e-01 -3.214179369016204740e-02 -8.377151091460570687e-01 -3.954729085132140387e+00
-8.134549526123496577e+00 1.643939641261271400e-01 -5.464316438385843910e-02 1.643939641261271400e-01 2.332896088316747107e+00 -9.565031042393972172e-01 -5.464316438385843910e-02 -9.565031042393972172e-01 -8.440330302205845125e-01
-4.357861524851392332e+00 -2.782832341661772846e-01 1.715118381559614047e+00 -2.782832341661772846e-01 -5.887988300792150298e+00 -1.154802000186789801e+00 1.715118381559614047e+00 -1.154802000186789801e+00 2.950201515888367654e-01
2.157637230416005636e+00 -3.842908147146688325e-02 2.194698253050137549e+00 -3.842908147146688325e-02 -5.576613633967555828e+00 -1.205388486794347180e+00 2.194698253050137549e+00 -1.205388486794347180e+00 -2.868316620333293709e+00
4.445327171478750117e-01 4.273763676670264133e-01 5.241452175119505341e-01 4.273763676670264133e-01 -4.277507015030672655e+00 -6.197628961011947268e-01 5.241452175119505341e-01 -6.197628961011947268e-01 -5.804826598815370886e+00
-2.505352320444891312e+00 -7.582005007854910605e-01 -8.816290462370368619e-01 -7.582005007854910605e-01 8.074078270492411891e-01 2.697483729009038655e-01 -8.816290462370368619e-01 2.697483729009038655e-01 -6.673559345359494799e+00
-6.196953015535284770e+00 -2.289544422490051634e+00 -1.721226361980958242e+00 -2.289544422490051634e+00 1.795078304153103321e+00 5.038965708857556791e-01 -1.721226361980958242e+00 5.038965708857556791e-01 -6.748673923971246325e+00
-6.241886794135151462e+00 -1.916797352223270856e+00 -2.301542657479872300e+00 -1.916797352223270856e+00 -6.007499320203453230e+00 1.737366945488477255e+00 -2.301542657479872300e+00 1.737366945488477255e+00 -6.732649308313419567e+00
3.508245520009605656e+00 -5.602907270217767355e-01 -1.029225763490504875e+00 -5.602907270217767355e-01 -3.732316577600016227e+00 2.003964528736943418e+00 -1.029225763490504875e+00 2.003964528736943418e+00 -1.282581370720009550e+00
1.079312800389037186e+01 3.484479652389056437e-01 1.585921767612263333e-01 3.484479652389056437e-01 5.027250221396663221e+00 1.103508144012524950e+00 1.585921767612263333e-01 1.103508144012524950e+00 2.332202683287451617e+00
5.075230311467741728e+00 -4.356512042260390211e-02 -5.503222198912962604e-01 -4.356512042260390211e-02 3.325571369620019535e-01 1.273592624114916472e+00 -5.503222198912962604e-01 1.273592624114916472e+00 -8.354394478505395849e-01
1.363481351621168569e+00 -6.951397388961426671e-01 -6.394386952185853179e-01 -6.951397388961426671e-01 -2.129120376133825321e+00 1.160335013791581771e+00 -6.394386952185853179e-01 1.160335013791581771e+00 1.307885776191211047e+00
5.081457239576725460e-01 -4.452451279744401580e-01 -3.473375404109436682e-01 -4.452451279744401580e-01 -4.384086668994759961e+00 6.621600277300797588e-01 -3.473375404109436682e-01 6.621600277300797588e-01 -4.787009589221224104e+00
-2.177073557852863495e+00 -1.920835214592223616e-01 -7.407074840214129541e-01 -1.920835214592223616e-01 -2.119078630497848170e-01 2.805611388189905298e-01 -7.407074840214129541e-01 2.805611388189905298e-01 -5.193109322164945141e+00
-1.460251928181015790e+00 1.261087559318954776e+00 -4.782352481378873699e-01 1.261087559318954776e+00 2.152636275127056464e+00 -3.569411788644689665e-01 -4.782352481378873699e-01 -3.569411788644689665e-01 -5.412582122742247037e+00
-4.457488928267372863e+00 1.597549675820736370e+00 -2.067553946082227589e-01 1.597549675820736370e+00 5.266931848364756474e-01 -3.157855703592277186e-02 -2.067553946082227589e-01 -3.157855703592277186e-02 -4.577180656408655679e+00
-5.012521315886545814e+00 1.086272199027158436e+00 -1.781785185389161696e-01 1.086272199027158436e+00 -3.470934730017686487e+00 3.500062440984019196e-01 -1.781785185389161696e-01 3.500062440984019196e-01 -1.085012464316349456e+00
-8.469335459406999167e-01 1.092834498448848723e+00 1.362425414870223894e-01 1.092834498448848723e+00 -5.590707267200443198e+00 2.643066468830560511e-01 1.362425414870223894e-01 2.643066468830560511e-01 -4.349497324007285393e+00
-6.745862066450652311e-03 5.523465240744767080e-01 1.176805916894410747e-01 5.523465240744767080e-01 -6.345619209549157702e+00 1.173286525094914406e-01 1.176805916894410747e-01 1.173286525094914406e-01 -1.011923469908309059e+01
1.346342417712160566e+00 -1.105439917530162131e-01 -2.162391239277783317e-01 -1.105439917530162131e-01 -1.594397596201574618e+00 -2.413642859027208265e-01 -2.162391239277783317e-01 -2.413642859027208265e-01 -1.221279776595303801e+01
-1.679754694083820832e+00 -4.324963137630978838e-01 -2.035421103180358737e-01 -4.324963137630978838e-01 8.490746507757838124e-01 -2.959776253493158760e-01 -2.035421103180358737e-01 -2.959776253493158760e-01 -1.016977481900037716e+01
-6.872638790229596673e+00 -4.207539973567634983e-01 -7.356832220502342867e-01 -4.207539973567634983e-01 -7.016859662640269057e-01 -4.533792669770029260e-01 -7.356832220502342867e-01 -4.533792669770029260e-01 -6.968886394160645814e+00
-7.372339955116384402e+00 2.983879585909395282e-01 -9.454330343122741009e-01 2.983879585909395282e-01 -3.332708088012609426e+00 -6.103687357156351023e-01 -9.454330343122741009e-01 -6.103687357156351023e-01 7.949454752591431639e-01
-5.136614946075066968e+00 7.291371268702286912e-01 -4.854086572619636386e-01 7.291371268702286912e-01 -1.780285683607209402e+00 -7.629551583966297512e-01 -4.854086572619636386e-01 -7.629551583966297512e-01 1.502916420182368817e+00
-1.272639423425368621e+00 7.410102359309752584e-01 -1.505507404896990475e-01 7.410102359309752584e-01 3.695875916455535481e-01 -4.393604014716672168e-01 -1.505507404896990475e-01 -4.393604014716672168e-01 -2.654823300357754823e-01
3.252219811049196441e+00 8.212422690920623269e-01 4.373448883744075477e-01 8.212422690920623269e-01 2.618774087282994323e+00 1.703197869366688266e-01 4.373448883744075477e-01 1.703197869366688266e-01 2.394258085602487263e-01
8.579901398747747265e+00 4.407383257887425021e-01 7.708302122192574046e-01 4.407383257887425021e-01 2.706925952730923512e+00 -1.593416368900507640e-01 7.708302122192574046e-01 -1.593416368900507640e-01 1.335208676773298686e+00
7.399825327787945994e+00 2.322785521633198014e-01 6.407289334490181565e-01 2.322785521633198014e-01 1.590987082693517740e+00 -1.511146755854777535e-01 6.407289334490181565e-01 -1.511146755854777535e-01 3.513716866905554070e+00
6.263038096232716789e+00 -2.137646748015416820e-01 6.111663043086555946e-01 -2.137646748015416820e-01 3.470534504449400703e+00 -5.205797315133853936e-02 6.111663043086555946e-01 -5.205797315133853936e-02 3.071076291016910709e+00
4.292996230458395068e+00 -9.282184402359566766e-01 3.919151407610326765e-01 -9.282184402359566766e-01 4.317993268325407641e+00 -3.917375001115627198e-01 3.919151407610326765e-01 -3.917375001115627198e-01 1.453005342003229172e+00
3.391324120783727913e+00 -8.438833344090883593e-01 2.085020594276861261e-01 -8.438833344090883593e-01 5.037978650490649635e+00 1.818693276425624450e-01 2.085020594276861261e-01 1.818693276425624450e-01 -2.310657270208578140e+00
4.972024379303922714e+00 -3.579890775919186141e-01 3.140483002848609706e-01 -3.579890775919186141e-01 4.237633495699463237e-01 3.170281029592756372e-01 3.140483002848609706e-01 3.170281029592756372e-01 -3.543497624901184029e+00
6.355207510679951710e+00 8.581266799516683308e-02 3.356847958762992357e-01 8.581266799516683308e-02 -4.117318120347145616e+00 -3.888164296244295964e-02 3.356847958762992357e-01 -3.888164296244295964e-02 -2.742829061255303458e+00
1.825571557569285464e+00 9.417676368058057745e-01 2.505516179482111458e-02 9.417676368058057745e-01 -6.957455334515231904e+00 2.555421389108655794e-01 2.505516179482111458e-02 2.555421389108655794e-01 -5.876080793476193165e+00
-1.301003468092986504e+00 1.114594067170317615e+00 -2.265940035403697650e-01 1.114594067170317615e+00 -9.502241886377060354e+00 -1.339445201374871997e-01 -2.265940035403697650e-01 -1.339445201374871997e-01 -8.815488428799422849e+00
-4.296312211181458451e+00 5.838679859665735217e-01 -2.507043392369243118e-01 5.838679859665735217e-01 -1.013691373390361150e+01 -6.262409268952285890e-01 -2.507043392369243118e-01 -6.262409268952285890e-01 -1.036296882505943984e+01
-3.160289949321767988e+00 1.029918668567046253e-01 -6.949529589203787619e-03 1.029918668567046253e-01 -9.670897352757194199e+00 -4.304302682845022598e-01 -6.949529589203787619e-03 -4.304302682845022598e-01 -8.708471346074849961e+00
-4.027631864589402699e-01 -1.238919687819868831e-01 8.671588930235393233e-01 -1.238919687819868831e-01 -4.730052523559661992e+00 -7.858618052875924187e-01 8.671588930235393233e-01 -7.858618052875924187e-01 -7.038748727904915903e+00
1.781595505356994735e+00 -4.316015411767232801e-01 1.279250442344847416e+00 -4.316015411767232801e-01 3.248067793565612149e+00 -1.173683116181697406e+00 1.279250442344847416e+00 -1.173683116181697406e+00 -4.473560697323824442e+00
-2.676439495451978789e-01 -2.361777249547006297e-01 6.773802362508859476e-01 -2.361777249547006297e-01 7.845428296399684420e+00 -5.991423351250834139e-01 6.773802362508859476e-01 -5.991423351250834139e-01 -4.755206514809439788e+00
1.869136617690242419e+00 1.621194572844834592e-01 -3.141695051509817149e-02 1.621194572844834592e-01 7.923461837341377212e+00 -2.338948239332996615e-01 -3.141695051509817149e-02 -2.338948239332996615e-01 -1.832173770468403129e+00
6.158239063263967417e+00 -2.533964938581886872e-01 -4.336532407217117968e-01 -2.533964938581886872e-01 3.204648567370068424e+00 -2.268847461433048662e-01 -4.336532407217117968e-01 -2.268847461433048662e-01 -1.619417022820144603e-01
1.027349284032027832e+01 -2.030358516308598260e-01 3.954269425003777844e-02 -2.030358516308598260e-01 5.000210055714957580e-01 -1.980372632440983438e-01 3.954269425003777844e-02 -1.980372632440983438e-01 -4.102085353398504886e+00
6.944617071738637293e+00 7.148538013907936861e-01 1.117647818432006890e+00 7.148538013907936861e-01 -2.250000507583972187e+00 5.522672223264353530e-02 1.117647818432006890e+00 5.522672223264353530e-02 -8.292813279675574023e+00
9.299370293886906058e-01 2.615124056623377991e-01 1.291959571066768842e+00 2.615124056623377991e-01 -3.923368311600326397e+00 -4.710549688285878278e-02 1.291959571066768842e+00 -4.710549688285878278e-02 -1.032966424965376362e+01
-9.826985243303684170e-01 -8.157201221803623836e-01 7.929812023075716310e-01 -8.157201221803623836e-01 -3.075574299063304373e+00 -4.808719113320086280e-01 7.929812023075716310e-01 -4.808719113320086280e-01 -1.006397474897092614e+01
7.773543477893150921e+00 -1.281119245937864637e+00 -1.959800709459392221e-01 -1.281119245937864637e+00 -3.371121335848463296e+00 -3.354209121214694056e-01 -1.959800709459392221e-01 -3.354209121214694056e-01 -6.555426453716420632e+00
1.386592653892569871e+01 -9.708836686235819968e-01 -1.360709576220448191e+00 -9.708836686235819968e-01 -6.276276454055691900e+00 -1.688714277430297395e-01 -1.360709576220448191e+00 -1.688714277430297395e-01 -4.838242956427781571e+00
1.896857821708324288e+00 9.635714101463657699e-02 -7.373555673333592742e-01 9.635714101463657699e-02 -6.112459454962703376e+00 -7.236868802216711583e-01 -7.373555673333592742e-01 -7.236868802216711583e-01 -9.228306304635372825e+00
-5.398481672715377044e+00 2.128269098436535306e-02 -1.377321068127874470e+00 2.128269098436535306e-02 -3.381011431265683598e+00 -6.072295865790903191e-01 -1.377321068127874470e+00 -6.072295865790903191e-01 -1.242837014540484297e+01
-7.025933844905531522e+00 -1.520543389045093674e+00 -1.726781829708381677e+00 -1.520543389045093674e+00 3.136948807222291191e-01 -5.960242871899318340e-01 -1.726781829708381677e+00 -5.960242871899318340e-01 -1.208289716269600689e+01
-3.980711794786871760e+00 -2.291149968322628627e+00 -3.161991688956434232e-01 -2.291149968322628627e+00 3.118389877246211306e+00 3.653077063782081413e-01 -3.161991688956434232e-01 3.653077063782081413e-01 -1.098198296366768290e+01
-4.706877116453132892e+00 -8.321051776633539010e-01 8.368603508287524306e-01 -8.321051776633539010e-01 5.053341463546975554e+00 1.074053123524032038e+00 8.368603508287524306e-01 1.074053123524032038e+00 -1.278944852075098737e+01
3.654426631547619042e+00 2.682576698745516020e-02 6.940131045620731021e-01 2.682576698745516020e-02 6.950893007346725661e+00 5.144218984770418945e-01 6.940131045620731021e-01 5.144218984770418945e-01 -8.019065346454771870e+00
9.616710540422770848e+00 -3.685566154328093202e-01 -4.857129285397839835e-01 -3.685566154328093202e-01 8.082289267666288524e+00 5.215556356518767922e-01 -4.857129285397839835e-01 5.215556356518767922e-01 -3.965110771616423557e-01
1.531515647506395439e+01 7.926562344777794700e-02 -4.892000530072722064e-01 7.926562344777794700e-02 1.315952983304119250e+01 4.634947723315008261e-01 -4.892000530072722064e-01 4.634947723315008261e-01 3.228773688168711242e+00
9.375855647668611681e+00 -1.835327293196315490e-01 6.666522558069863658e-02 -1.835327293196315490e-01 -4.171443693520220930e-01 2.275123463610551414e-02 6.666522558069863658e-02 2.275123463610551414e-02 2.295830953946196296e+00
8.317364178323951585e-01 1.629287988136532694e-01 -1.030885298732773903e+00 1.629287988136532694e-01 -7.017069047475390065e+00 1.308230889098596361e-01 -1.030885298732773903e+00 1.308230889098596361e-01 -1.195609123574208565e+00
2.770138765565171024e+00 4.500450219908788685e-01 -1.487396809124809760e+00 4.500450219908788685e-01 -8.711306454796323706e+00 -2.073961512513109173e-01 -1.487396809124809760e+00 -2.073961512513109173e-01 -1.834459483498969146e+00
-1.737373218926598462e+00 -6.692950697179547159e-01 -1.302477762766180991e+00 -6.692950697179547159e-01 -5.913023213500204989e+00 8.170800077465334432e-02 -1.302477762766180991e+00 8.170800077465334432e-02 -2.962769560426095516e+00
-7.732720063206571126e+00 -6.236970700586177419e-01 -1.073075841536746400e-01 -6.236970700586177419e-01 -3.522593435818359708e+00 4.259475390231453051e-01 -1.073075841536746400e-01 4.259475390231453051e-01 -1.179572635448594120e+01
-1.331907372622787733e+01 -5.585560276622956177e-01 -1.571698412656603872e-01 -5.585560276622956177e-01 -5.819472365850712592e+00 2.212834278168070712e-01 -1.571698412656603872e-01 2.212834278168070712e-01 -1.309136975759757071e+01
-1.530692897479679537e+01 4.506635689481761076e-02 -1.268177820763597641e+00 4.506635689481761076e-02 -1.165580159789444004e+01 -6.005329583671160237e-02 -1.268177820763597641e+00 -6.005329583671160237e-02 -1.682829298655125783e+01
-9.700046559621565478e+00 5.072274191789765373e-03 -1.454643585816710161e+00 5.072274191789765373e-03 -1.175491217927917198e+01 -6.661872559899967294e-01 -1.454643585816710161e+00 -6.661872559899967294e-01 -1.720612107597824547e+01
-5.895808576494494524e-01 -4.788116349966503593e-01 -1.808552922253612527e+00 -4.788116349966503593e-01 -7.679697173998422777e+00 -7.526858275312695579e-01 -1.808552922253612527e+00 -7.526858275312695579e-01 -1.062843699374504070e+01
5.012926584282047848e+00 -1.640876233445797139e-01 -7.139316086710317810e-01 -1.640876233445797139e-01 -5.458378446828617392e+00 1.861690575634693812e-01 -7.139316086710317810e-01 1.861690575634693812e-01 -1.644282453925097975e+00
7.621529578093402257e+00 3.554511206793883882e-02 1.575872920315244397e+00 3.554511206793883882e-02 -1.580727870501578702e-01 9.735675558431949872e-01 1.575872920315244397e+00 9.735675558431949872e-01 4.409255822762779609e+00
7.866658033189379395e+00 1.430179548159101477e-01 1.426028374319497249e+00 1.430179548159101477e-01 8.222098328818334689e-01 1.173196641983021093e+00 1.426028374319497249e+00 1.173196641983021093e+00 3.893733145450253286e+00
8.182743644839700181e+00 1.950468064275007185e-01 -6.553385664005525468e-01 1.950468064275007185e-01 9.070616521980785496e-01 9.924933536711012527e-01 -6.553385664005525468e-01 9.924933536711012527e-01 3.311478714116510957e+00
1.125667594210682054e+01 -5.631047169069341302e-02 -1.402939968763986522e+00 -5.631047169069341302e-02 4.607672297438144327e+00 7.284614727808074175e-01 -1.402939968763986522e+00 7.284614727808074175e-01 2.583967365296036434e+00
8.804579908133913335e+00 -2.373462381683491551e-01 -6.021377600773242245e-01 -2.373462381683491551e-01 8.711926991925020403e+00 -1.039798952046524366e-01 -6.021377600773242245e-01 -1.039798952046524366e-01 3.114040542295594793e+00
8.144690577566372269e+00 -5.258250162547005724e-01 -8.749820894322100917e-03 -5.258250162547005724e-01 9.538129311107640618e+00 -5.038595233667998441e-01 -8.749820894322100917e-03 -5.038595233667998441e-01 3.671266523089888434e+00
4.171623218107034070e+00 -7.354029553401736363e-01 -1.445479209995335634e-01 -7.354029553401736363e-01 4.407392199947119060e+00 -2.823996411475359070e-01 -1.445479209995335634e-01 -2.823996411475359070e-01 1.733980895128076627e+00
-4.002493274239262711e-01 -4.440443436304867819e-01 -2.963318955859883252e-01 -4.440443436304867819e-01 -2.174684052692750225e+00 -4.972112931501401212e-01 -2.963318955859883252e-01 -4.972112931501401212e-01 -4.294037578775434127e+00
-4.735518283957357855e-01 -4.672299769806823044e-01 -4.839684325666730041e-02 -4.672299769806823044e-01 -4.000426924349671509e+00 -5.975928157894857540e-01 -4.839684325666730041e-02 -5.975928157894857540e-01 -7.517169684924994044e+00
-1.412183685846266634e+00 1.518633064066441107e-01 4.502830472844158993e-02 1.518633064066441107e-01 -1.064456016443656283e+00 -4.432369926087786904e-01 4.502830472844158993e-02 -4.432369926087786904e-01 -1.003819143459776342e+01
-5.244412312281324873e+00 9.604118816046017804e-01 -1.014895394910451665e-01 9.604118816046017804e-01 -1.159769352115099517e-01 -3.107211510226352003e-01 -1.014895394910451665e-01 -3.107211510226352003e-01 -1.057862924372903102e+01
-9.436993604980187911e+00 9.265735098283691684e-01 -4.874183139250883867e-01 9.265735098283691684e-01 -6.248711016640005056e+00 -1.459367550438556427e-01 -4.874183139250883867e-01 -1.459367550438556427e-01 -9.732324078308657533e+00
-9.429922573406031461e+00 5.233696706365933426e-01 -9.287601021266931323e-01 5.233696706365933426e-01 -1.337325197817432887e+01 1.221524881726902961e-01 -9.287601021266931323e-01 1.221524881726902961e-01 -4.322947791718337207e+00
-4.149747284576414508e+00 2.001218101018875373e-01 -6.930017706955315937e-01 2.001218101018875373e-01 -1.576479636074479984e+01 7.854167727438518543e-02 -6.930017706955315937e-01 7.854167727438518543e-02 2.756939351767110136e+00
-6.742099795547623620e-01 2.192802369494876447e-01 -4.698446299581140462e-01 2.192802369494876447e-01 -1.484320220741867580e+01 4.421631483497894810e-01 -4.698446299581140462e-01 4.421631483497894810e-01 4.068438340065205772e+00
-3.892875825088731645e+00 5.625266257049601482e-01 -6.011739464774193964e-01 5.625266257049601482e-01 -1.333782575509454382e+01 9.906842368188991665e-01 -6.011739464774193964e-01 9.906842368188991665e-01 2.690687470135153525e+00
-6.819400222188169991e+00 6.568156326181848748e-01 -3.813164872790650306e-01 6.568156326181848748e-01 -9.979340635457619513e+00 6.062758010796630570e-01 -3.813164872790650306e-01 6.062758010796630570e-01 2.241859423484755531e+00
-4.797412730571279482e+00 4.077846857077112031e-01 -3.510897756189942931e-02 4.077846857077112031e-01 -4.156631982959980043e+00 9.791962074330619326e-02 -3.510897756189942931e-02 9.791962074330619326e-02 4.633454672671561525e+00
-6.452459917381385690e-01 1.564087333350910602e-01 1.604568575378067519e-01 1.564087333350910602e-01 3.338267932888729028e+00 -1.800420183224534995e-02 1.604568575378067519e-01 -1.800420183224534995e-02 9.405212434644825592e+00
4.033071434497897956e-01 -4.276934909973485743e-02 6.528065055672000426e-03 -4.276934909973485743e-02 6.681337504200097754e+00 3.737050511729110291e-01 6.528065055672000426e-03 3.737050511729110291e-01 9.280803336982053509e+00
2.794380281428199275e-01 2.170733697421119157e-01 -4.264173684956300558e-01 2.170733697421119157e-01 9.206404017197840517e+00 8.685020013598991895e-01 -4.264173684956300558e-01 8.685020013598991895e-01 7.348702949194680478e+00
1.967282788778334623e+00 7.844527878237779195e-01 -2.388875136860336632e-02 7.844527878237779195e-01 9.638174764586121768e+00 8.170218200206357251e-01 -2.388875136860336632e-02 8.170218200206357251e-01 5.819757974626823760e+00
5.327865004394756632e+00 8.819611441072698899e-01 1.118339641804562579e+00 8.819611441072698899e-01 1.184580695792133120e+01 4.161041691842454204e-01 1.118339641804562579e+00 4.161041691842454204e-01 5.186354413852705569e+00
6.814143524534711283e+00 4.040280489113020068e-01 1.620765975243106727e+00 4.040280489113020068e-01 1.092605935609424961e+01 3.153199174146413264e-01 1.620765975243106727e+00 3.153199174146413264e-01 4.002507252923001246e+00
4.864018996217276403e+00 -7.352968696059143661e-02 1.015279709524889329e+00 -7.352968696059143661e-02 4.942252725168064131e+00 -2.673679336184458522e-01 1.015279709524889329e+00 -2.673679336184458522e-01 3.202234147782546114e-01
-4.295735918161870948e-01 -1.052386279398964258e-01 2.340825623537216849e-01 -1.052386279398964258e-01 1.062524844710303756e-01 -8.838415994604424952e-01 2.340825623537216849e-01 -8.838415994604424952e-01 -3.281247024061912931e+00
-4.187500430117597539e+00 -3.324191856045008442e-01 7.057298349918852409e-01 -3.324191856045008442e-01 -3.303334500109153193e+00 -1.024438335110038567e+00 7.057298349918852409e-01 -1.024438335110038567e+00 -2.428744545734713434e+00
-3.635447696513587790e+00 -1.044227174442160955e+00 2.684465921861042936e+00 -1.044227174442160955e+00 -6.419197510337602885e+00 -1.121126984734782894e+00 2.684465921861042936e+00 -1.121126984734782894e+00 5.731308250762591427e+00
-6.224783336490673058e+00 -9.886091620264937374e-01 1.726128743861497838e+00 -9.886091620264937374e-01 -1.000823896710807404e+01 -9.461597699064001610e-01 1.726128743861497838e+00 -9.461597699064001610e-01 2.692139162481456349e+00
-9.722169610957088537e+00 -2.050039903002993658e-01 -2.873831550220770636e-01 -2.050039903002993658e-01 -1.247347351355971234e+01 -5.714230016838086623e-01 -2.873831550220770636e-01 -5.714230016838086623e-01 -5.344486415362700527e+00
-1.103614435998562904e+01 -2.136482175730698430e-01 4.827853452484145644e-03 -2.136482175730698430e-01 -1.013469133504117714e+01 -1.728539688688919829e-01 4.827853452484145644e-03 -1.728539688688919829e-01 -1.223847555011206545e+01
-1.076117698652029908e+01 -1.130481136873136006e+00 4.473071219902414186e-01 -1.130481136873136006e+00 -4.173790941262888410e+00 1.043897455420083747e-01 4.473071219902414186e-01 1.043897455420083747e-01 -1.410168317558372486e+01
-8.302552457128655305e+00 -1.933868770802996462e+00 1.513404206227931259e-01 -1.933868770802996462e+00 -3.956968713624478440e+00 -1.653489019760648882e-01 1.513404206227931259e-01 -1.653489019760648882e-01 -1.351752457971160126e+01
-9.075185597587010378e+00 -1.551374575022132385e+00 -4.676879603979414712e-01 -1.551374575022132385e+00 -8.401428332631695639e+00 -9.804683250895890323e-01 -4.676879603979414712e-01 -9.804683250895890323e-01 -1.208703063462609251e+01
2.513425217774678533e-01 -8.243550409150123270e-01 -1.463547663591477699e+00 -8.243550409150123270e-01 -5.478587430493277566e+00 -1.307190828898125323e+00 -1.463547663591477699e+00 -1.307190828898125323e+00 -9.582799594983864466e+00
6.967145437342330716e+00 -3.736917718192112048e-01 -1.718246790637266708e+00 -3.736917718192112048e-01 -2.804062399046745924e+00 -9.227860635303462011e-01 -1.718246790637266708e+00 -9.227860635303462011e-01 -3.990217599239191060e+00
6.865638269420106354e+00 -2.723474215499122053e-01 -9.504849657192195878e-01 -2.723474215499122053e-01 -1.821728047946158835e+00 -7.101747497499679707e-01 -9.504849657192195878e-01 -7.101747497499679707e-01 -9.923828389640974024e-01
2.413675007319429078e+00 -2.613229775680310785e-01 -6.084672826261667417e-02 -2.613229775680310785e-01 -3.285187247058569238e+00 -1.697501168897025403e+00 -6.084672826261667417e-02 -1.697501168897025403e+00 7.584039762501921800e-01
2.333511211055453227e+00 3.195579440116189107e-01 8.732700170516447535e-01 3.195579440116189107e-01 9.195171419527888856e-01 -2.559628369028061456e+00 8.732700170516447535e-01 -2.559628369028061456e+00 7.820853046953708088e+00
3.978917264716325342e+00 1.290983222191346425e+00 1.616656047111741712e+00 1.290983222191346425e+00 -2.960488718476236292e-01 -1.223979108964720508e+00 1.616656047111741712e+00 -1.223979108964720508e+00 1.243678045145211719e+01
4.806442992154452476e+00 1.925555896958562441e+00 1.619489809473590336e+00 1.925555896958562441e+00 -4.228285271368857678e+00 -9.088073214132775801e-01 1.619489809473590336e+00 -9.088073214132775801e-01 1.344904306877759481e+01
1.585647109134681987e+00 1.846866704626773936e+00 -1.143694889446242591e-01 1.846866704626773936e+00 -2.150931225576183881e+00 -1.397830956327200225e+00 -1.143694889446242591e-01 -1.397830956327200225e+00 8.396654312016094579e+00
-4.016559340867466688e+00 1.508580922342294350e+00 -8.051781228779633093e-01 1.508580922342294350e+00 1.377590305240865343e+00 -1.861189139847970075e+00 -8.051781228779633093e-01 -1.861189139847970075e+00 4.126340235030469650e+00
-7.435341424108553809e+00 1.686881097331214274e+00 -9.051093010650450577e-01 1.686881097331214274e+00 -1.031993820011629870e+00 -1.644421568987236792e+00 -9.051093010650450577e-01 -1.644421568987236792e+00 1.425896900594265881e+00
-7.744770929565915729e+00 1.121260578117107887e+00 -1.060365834852688538e+00 1.121260578117107887e+00 -8.349575730045719624e+00 -1.158140745842660690e+00 -1.060365834852688538e+00 -1.158140745842660690e+00 -8.902700695418058752e-01