7.773456384886189952e+00 0.000000000000000000e+00 0.000000000000000000e+00 0.000000000000000000e+00 7.773456384886189952e+00 0.000000000000000000e+00 0.000000000000000000e+00 0.000000000000000000e+00 7.815216311744475064e+00
7.774755189466879379e+00 0.000000000000000000e+00 0.000000000000000000e+00 0.000000000000000000e+00 7.774755189466879379e+00 0.000000000000000000e+00 0.000000000000000000e+00 0.000000000000000000e+00 7.816522093656002035e+00
7.778654314009344262e+00 0.000000000000000000e+00 0.000000000000000000e+00 0.000000000000000000e+00 7.778654314009344262e+00 0.000000000000000000e+00 0.000000000000000000e+00 0.000000000000000000e+00 7.820442164756891579e+00
7.785316874339641480e+00 0.000000000000000000e+00 0.000000000000000000e+00 0.000000000000000000e+00 7.785316874339641480e+00 0.000000000000000000e+00 0.000000000000000000e+00 0.000000000000000000e+00 7.827140517149159038e+00
7.794552893032336449e+00 0.000000000000000000e+00 0.000000000000000000e+00 0.000000000000000000e+00 7.794552893032336449e+00 0.000000000000000000e+00 0.000000000000000000e+00 0.000000000000000000e+00 7.836426152826243552e+00
7.806701618275615928e+00 0.000000000000000000e+00 0.000000000000000000e+00 0.000000000000000000e+00 7.806701618275615928e+00 0.000000000000000000e+00 0.000000000000000000e+00 0.000000000000000000e+00 7.848640142457840696e+00
7.821700193733297723e+00 0.000000000000000000e+00 0.000000000000000000e+00 0.000000000000000000e+00 7.821700193733297723e+00 0.000000000000000000e+00 0.000000000000000000e+00 0.000000000000000000e+00 7.863719292036715380e+00
7.838086486501862460e+00 0.000000000000000000e+00 0.000000000000000000e+00 0.000000000000000000e+00 7.838086486501862460e+00 0.000000000000000000e+00 0.000000000000000000e+00 0.000000000000000000e+00 7.880193613907557015e+00
7.854214853769123650e+00 0.000000000000000000e+00 0.000000000000000000e+00 0.000000000000000000e+00 7.854214853769123650e+00 0.000000000000000000e+00 0.000000000000000000e+00 0.000000000000000000e+00 7.896408624671073184e+00
7.868321385570679283e+00 0.000000000000000000e+00 0.000000000000000000e+00 0.000000000000000000e+00 7.868321385570679283e+00 0.000000000000000000e+00 0.000000000000000000e+00 0.000000000000000000e+00 7.910590938429403529e+00
7.879674716913484644e+00 0.000000000000000000e+00 0.000000000000000000e+00 0.000000000000000000e+00 7.879674716913484644e+00 0.000000000000000000e+00 0.000000000000000000e+00 0.000000000000000000e+00 7.922005261211124250e+00
7.888252605888572688e+00 0.000000000000000000e+00 0.000000000000000000e+00 0.000000000000000000e+00 7.888252605888572688e+00 0.000000000000000000e+00 0.000000000000000000e+00 0.000000000000000000e+00 7.930629231619954034e+00
7.893627733381720191e+00 0.000000000000000000e+00 0.000000000000000000e+00 0.000000000000000000e+00 7.893627733381720191e+00 0.000000000000000000e+00 0.000000000000000000e+00 0.000000000000000000e+00 7.936033234932883040e+00
7.894386421181485147e+00 0.000000000000000000e+00 0.000000000000000000e+00 0.000000000000000000e+00 7.894386421181485147e+00 0.000000000000000000e+00 0.000000000000000000e+00 0.000000000000000000e+00 7.936795998494186932e+00
7.890973121927463474e+00 0.000000000000000000e+00 0.000000000000000000e+00 0.000000000000000000e+00 7.890973121927463474e+00 0.000000000000000000e+00 0.000000000000000000e+00 0.000000000000000000e+00 7.933364362592715935e+00
7.885014098322397302e+00 0.000000000000000000e+00 0.000000000000000000e+00 0.000000000000000000e+00 7.885014098322397302e+00 0.000000000000000000e+00 0.000000000000000000e+00 0.000000000000000000e+00 7.927373326407924914e+00
7.878118520367420885e+00 0.000000000000000000e+00 0.000000000000000000e+00 0.000000000000000000e+00 7.878118520367420885e+00 0.000000000000000000e+00 0.000000000000000000e+00 0.000000000000000000e+00 7.920440704593183057e+00
7.871199374894105816e+00 0.000000000000000000e+00 0.000000000000000000e+00 0.000000000000000000e+00 7.871199374894105816e+00 0.000000000000000000e+00 0.000000000000000000e+00 0.000000000000000000e+00 7.913484388651832901e+00
7.864473375686982237e+00 0.000000000000000000e+00 0.000000000000000000e+00 0.000000000000000000e+00 7.864473375686982237e+00 0.000000000000000000e+00 0.000000000000000000e+00 0.000000000000000000e+00 7.906722256581701025e+00
7.858955527153380416e+00 0.000000000000000000e+00 0.000000000000000000e+00 0.000000000000000000e+00 7.858955527153380416e+00 0.000000000000000000e+00 0.000000000000000000e+00 0.000000000000000000e+00 7.901174765512730680e+00
7.856482308525971625e+00 0.000000000000000000e+00 0.000000000000000000e+00 0.000000000000000000e+00 7.856482308525971625e+00 0.000000000000000000e+00 0.000000000000000000e+00 0.000000000000000000e+00 7.898688260462802369e+00
7.858097699399295699e+00 0.000000000000000000e+00 0.000000000000000000e+00 0.000000000000000000e+00 7.858097699399295699e+00 0.000000000000000000e+00 0.000000000000000000e+00 0.000000000000000000e+00 7.900312329407172207e+00
7.863047272459062320e+00 0.000000000000000000e+00 0.000000000000000000e+00 0.000000000000000000e+00 7.863047272459062320e+00 0.000000000000000000e+00 0.000000000000000000e+00 0.000000000000000000e+00 7.905288492158881297e+00
7.870670450546753294e+00 0.000000000000000000e+00 0.000000000000000000e+00 0.000000000000000000e+00 7.870670450546753294e+00 0.000000000000000000e+00 0.000000000000000000e+00 0.000000000000000000e+00 7.912952622859837248e+00
7.882465976568154176e+00 0.000000000000000000e+00 0.000000000000000000e+00 0.000000000000000000e+00 7.882465976568154176e+00 0.000000000000000000e+00 0.000000000000000000e+00 0.000000000000000000e+00 7.924811515842478116e+00
7.900481736090017471e+00 0.000000000000000000e+00 0.000000000000000000e+00 0.000000000000000000e+00 7.900481736090017471e+00 0.000000000000000000e+00 0.000000000000000000e+00 0.000000000000000000e+00 7.942924058154230416e+00
7.922469861594744422e+00 0.000000000000000000e+00 0.000000000000000000e+00 0.000000000000000000e+00 7.922469861594744422e+00 0.000000000000000000e+00 0.000000000000000000e+00 0.000000000000000000e+00 7.965030306469008003e+00
7.943936682248261327e+00 0.000000000000000000e+00 0.000000000000000000e+00 0.000000000000000000e+00 7.943936682248261327e+00 0.000000000000000000e+00 0.000000000000000000e+00 0.000000000000000000e+00 7.986612449421694571e+00
7.963329008746189430e+00 0.000000000000000000e+00 0.000000000000000000e+00 0.000000000000000000e+00 7.963329008746189430e+00 0.000000000000000000e+00 0.000000000000000000e+00 0.000000000000000000e+00 8.006108953789944138e+00
7.981759966644045967e+00 0.000000000000000000e+00 0.000000000000000000e+00 0.000000000000000000e+00 7.981759966644045967e+00 0.000000000000000000e+00 0.000000000000000000e+00 0.000000000000000000e+00 8.024638924973849896e+00
7.996815794099169317e+00 0.000000000000000000e+00 0.000000000000000000e+00 0.000000000000000000e+00 7.996815794099169317e+00 0.000000000000000000e+00 0.000000000000000000e+00 0.000000000000000000e+00 8.039775634113393465e+00
8.004844866969408557e+00 0.000000000000000000e+00 0.000000000000000000e+00 0.000000000000000000e+00 8.004844866969408557e+00 0.000000000000000000e+00 0.000000000000000000e+00 0.000000000000000000e+00 8.047847840113345086e+00
8.005704487860171525e+00 0.000000000000000000e+00 0.000000000000000000e+00 0.000000000000000000e+00 8.005704487860171525e+00 0.000000000000000000e+00 0.000000000000000000e+00 0.000000000000000000e+00 8.048712078988526031e+00
8.001986515573939585e+00 0.000000000000000000e+00 0.000000000000000000e+00 0.000000000000000000e+00 8.001986515573939585e+00 0.000000000000000000e+00 0.000000000000000000e+00 0.000000000000000000e+00 8.044974133316266318e+00
7.993569006746654715e+00 0.000000000000000000e+00 0.000000000000000000e+00 0.000000000000000000e+00 7.993569006746654715e+00 0.000000000000000000e+00 0.000000000000000000e+00 0.000000000000000000e+00 8.036511404635280797e+00
7.978377591253017265e+00 0.000000000000000000e+00 0.000000000000000000e+00 0.000000000000000000e+00 7.978377591253017265e+00 0.000000000000000000e+00 0.000000000000000000e+00 0.000000000000000000e+00 8.021238379061415458e+00
7.956754440769382875e+00 0.000000000000000000e+00 0.000000000000000000e+00 0.000000000000000000e+00 7.956754440769382875e+00 0.000000000000000000e+00 0.000000000000000000e+00 0.000000000000000000e+00 7.999499066457445906e+00
7.930821501526190254e+00 0.000000000000000000e+00 0.000000000000000000e+00 0.000000000000000000e+00 7.930821501526190254e+00 0.000000000000000000e+00 0.000000000000000000e+00 0.000000000000000000e+00 7.973426812398191288e+00
7.902655663919233575e+00 0.000000000000000000e+00 0.000000000000000000e+00 0.000000000000000000e+00 7.902655663919233575e+00 0.000000000000000000e+00 0.000000000000000000e+00 0.000000000000000000e+00 7.945109664581221587e+00
7.873593324932808279e+00 0.000000000000000000e+00 0.000000000000000000e+00 0.000000000000000000e+00 7.873593324932808279e+00 0.000000000000000000e+00 0.000000000000000000e+00 0.000000000000000000e+00 7.915891199272506285e+00
7.843976517012073657e+00 0.000000000000000000e+00 0.000000000000000000e+00 0.000000000000000000e+00 7.843976517012073657e+00 0.000000000000000000e+00 0.000000000000000000e+00 0.000000000000000000e+00 7.886115286358627685e+00
7.814823009901439299e+00 0.000000000000000000e+00 0.000000000000000000e+00 0.000000000000000000e+00 7.814823009901439299e+00 0.000000000000000000e+00 0.000000000000000000e+00 0.000000000000000000e+00 7.856805163160522909e+00
7.788709789619998602e+00 0.000000000000000000e+00 0.000000000000000000e+00 0.000000000000000000e+00 7.788709789619998602e+00 0.000000000000000000e+00 0.000000000000000000e+00 0.000000000000000000e+00 7.830551659571595380e+00
7.767677840080233764e+00 0.000000000000000000e+00 0.000000000000000000e+00 0.000000000000000000e+00 7.767677840080233764e+00 0.000000000000000000e+00 0.000000000000000000e+00 0.000000000000000000e+00 7.809406723912212911e+00
7.752448469286077781e+00 0.000000000000000000e+00 0.000000000000000000e+00 0.000000000000000000e+00 7.752448469286077781e+00 0.000000000000000000e+00 0.000000000000000000e+00 0.000000000000000000e+00 7.794095539138003126e+00
7.743758386864810106e+00 0.000000000000000000e+00 0.000000000000000000e+00 0.000000000000000000e+00 7.743758386864810106e+00 0.000000000000000000e+00 0.000000000000000000e+00 0.000000000000000000e+00 7.785358772565461827e+00
7.742579753909375917e+00 0.000000000000000000e+00 0.000000000000000000e+00 0.000000000000000000e+00 7.742579753909375917e+00 0.000000000000000000e+00 0.000000000000000000e+00 0.000000000000000000e+00 7.784173807854475768e+00
7.748728106728605347e+00 0.000000000000000000e+00 0.000000000000000000e+00 0.000000000000000000e+00 7.748728106728605347e+00 0.000000000000000000e+00 0.000000000000000000e+00 0.000000000000000000e+00 7.790355190352577175e+00
7.760884111461981760e+00 0.000000000000000000e+00 0.000000000000000000e+00 0.000000000000000000e+00 7.760884111461981760e+00 0.000000000000000000e+00 0.000000000000000000e+00 0.000000000000000000e+00 7.802576498580045872e+00
7.777738312904123319e+00 0.000000000000000000e+00 0.000000000000000000e+00 0.000000000000000000e+00 7.777738312904123319e+00 0.000000000000000000e+00 0.000000000000000000e+00 0.000000000000000000e+00 7.819521242784996495e+00
7.797767211383751729e+00 0.000000000000000000e+00 0.000000000000000000e+00 0.000000000000000000e+00 7.797767211383751729e+00 0.000000000000000000e+00 0.000000000000000000e+00 0.000000000000000000e+00 7.839657738876261384e+00
7.819812901951118000e+00 0.000000000000000000e+00 0.000000000000000000e+00 0.000000000000000000e+00 7.819812901951118000e+00 0.000000000000000000e+00 0.000000000000000000e+00 0.000000000000000000e+00 7.861821861499897146e+00
7.842658300384125702e+00 0.000000000000000000e+00 0.000000000000000000e+00 0.000000000000000000e+00 7.842658300384125702e+00 0.000000000000000000e+00 0.000000000000000000e+00 0.000000000000000000e+00 7.884789988114443204e+00
7.864227064376825282e+00 0.000000000000000000e+00 0.000000000000000000e+00 0.000000000000000000e+00 7.864227064376825282e+00 0.000000000000000000e+00 0.000000000000000000e+00 0.000000000000000000e+00 7.906474622058159873e+00
7.882753735515726667e+00 0.000000000000000000e+00 0.000000000000000000e+00 0.000000000000000000e+00 7.882753735515726667e+00 0.000000000000000000e+00 0.000000000000000000e+00 0.000000000000000000e+00 7.925100820665152312e+00
7.897765273669792307e+00 0.000000000000000000e+00 0.000000000000000000e+00 0.000000000000000000e+00 7.897765273669792307e+00 0.000000000000000000e+00 0.000000000000000000e+00 0.000000000000000000e+00 7.940193002577007775e+00
7.908274833934598291e+00 0.000000000000000000e+00 0.000000000000000000e+00 0.000000000000000000e+00 7.908274833934598291e+00 0.000000000000000000e+00 0.000000000000000000e+00 0.000000000000000000e+00 7.950759021442821428e+00
7.912407586952228122e+00 0.000000000000000000e+00 0.000000000000000000e+00 0.000000000000000000e+00 7.912407586952228122e+00 0.000000000000000000e+00 0.000000000000000000e+00 0.000000000000000000e+00 7.954913976097651940e+00
7.909668676968218293e+00 0.000000000000000000e+00 0.000000000000000000e+00 0.000000000000000000e+00 7.909668676968218293e+00 0.000000000000000000e+00 0.000000000000000000e+00 0.000000000000000000e+00 7.952160352365338802e+00
7.901502754193729494e+00 0.000000000000000000e+00 0.000000000000000000e+00 0.000000000000000000e+00 7.901502754193729494e+00 0.000000000000000000e+00 0.000000000000000000e+00 0.000000000000000000e+00 7.943950561287368650e+00
7.890321198468130959e+00 0.000000000000000000e+00 0.000000000000000000e+00 0.000000000000000000e+00 7.890321198468130959e+00 0.000000000000000000e+00 0.000000000000000000e+00 0.000000000000000000e+00 7.932708936922544751e+00
7.877394134780201895e+00 0.000000000000000000e+00 0.000000000000000000e+00 0.000000000000000000e+00 7.877394134780201895e+00 0.000000000000000000e+00 0.000000000000000000e+00 0.000000000000000000e+00 7.919712427520366305e+00
7.862982589574396108e+00 0.000000000000000000e+00 0.000000000000000000e+00 0.000000000000000000e+00 7.862982589574396108e+00 0.000000000000000000e+00 0.000000000000000000e+00 0.000000000000000000e+00 7.905223461790216177e+00
7.847585106657944287e+00 0.000000000000000000e+00 0.000000000000000000e+00 0.000000000000000000e+00 7.847585106657944287e+00 0.000000000000000000e+00 0.000000000000000000e+00 0.000000000000000000e+00 7.889743261774908589e+00
7.832645895623542742e+00 0.000000000000000000e+00 0.000000000000000000e+00 0.000000000000000000e+00 7.832645895623542742e+00 0.000000000000000000e+00 0.000000000000000000e+00 0.000000000000000000e+00 7.874723795531478387e+00
7.820317936929984448e+00 0.000000000000000000e+00 0.000000000000000000e+00 0.000000000000000000e+00 7.820317936929984448e+00 0.000000000000000000e+00 0.000000000000000000e+00 0.000000000000000000e+00 7.862329609586145907e+00
7.811679516814332480e+00 0.000000000000000000e+00 0.000000000000000000e+00 0.000000000000000000e+00 7.811679516814332480e+00 0.000000000000000000e+00 0.000000000000000000e+00 0.000000000000000000e+00 7.853644782856623152e+00
7.806599815510621987e+00 0.000000000000000000e+00 0.000000000000000000e+00 0.000000000000000000e+00 7.806599815510621987e+00 0.000000000000000000e+00 0.000000000000000000e+00 0.000000000000000000e+00 7.848537792795996282e+00
7.806025759630061067e+00 0.000000000000000000e+00 0.000000000000000000e+00 0.000000000000000000e+00 7.806025759630061067e+00 0.000000000000000000e+00 0.000000000000000000e+00 0.000000000000000000e+00 7.847960653020186861e+00
7.811579111035298340e+00 0.000000000000000000e+00 0.000000000000000000e+00 0.000000000000000000e+00 7.811579111035298340e+00 0.000000000000000000e+00 0.000000000000000000e+00 0.000000000000000000e+00 7.853543837685694307e+00
7.822606116642533358e+00 0.000000000000000000e+00 0.000000000000000000e+00 0.000000000000000000e+00 7.822606116642533358e+00 0.000000000000000000e+00 0.000000000000000000e+00 0.000000000000000000e+00 7.864630081670935802e+00
7.837401683582794654e+00 0.000000000000000000e+00 0.000000000000000000e+00 0.000000000000000000e+00 7.837401683582794654e+00 0.000000000000000000e+00 0.000000000000000000e+00 0.000000000000000000e+00 7.879505132146665147e+00
7.854149113369545354e+00 0.000000000000000000e+00 0.000000000000000000e+00 0.000000000000000000e+00 7.854149113369545354e+00 0.000000000000000000e+00 0.000000000000000000e+00 0.000000000000000000e+00 7.896342531105526419e+00
7.872005733633462121e+00 0.000000000000000000e+00 0.000000000000000000e+00 0.000000000000000000e+00 7.872005733633462121e+00 0.000000000000000000e+00 0.000000000000000000e+00 0.000000000000000000e+00 7.914295079246253195e+00
7.890659233372299575e+00 0.000000000000000000e+00 0.000000000000000000e+00 0.000000000000000000e+00 7.890659233372299575e+00 0.000000000000000000e+00 0.000000000000000000e+00 0.000000000000000000e+00 7.933048787791260104e+00
7.910956330454096630e+00 0.000000000000000000e+00 0.000000000000000000e+00 0.000000000000000000e+00 7.910956330454096630e+00 0.000000000000000000e+00 0.000000000000000000e+00 0.000000000000000000e+00 7.953454923278399313e+00
7.932565244302681506e+00 0.000000000000000000e+00 0.000000000000000000e+00 0.000000000000000000e+00 7.932565244302681506e+00 0.000000000000000000e+00 0.000000000000000000e+00 0.000000000000000000e+00 7.975179922767759777e+00
7.954052966449882689e+00 0.000000000000000000e+00 0.000000000000000000e+00 0.000000000000000000e+00 7.954052966449882689e+00 0.000000000000000000e+00 0.000000000000000000e+00 0.000000000000000000e+00 7.996783079497484792e+00
7.973130267567192675e+00 0.000000000000000000e+00 0.000000000000000000e+00 0.000000000000000000e+00 7.973130267567192675e+00 0.000000000000000000e+00 0.000000000000000000e+00 0.000000000000000000e+00 8.015962866133856224e+00
7.987539859925240293e+00 0.000000000000000000e+00 0.000000000000000000e+00 0.000000000000000000e+00 7.987539859925240293e+00 0.000000000000000000e+00 0.000000000000000000e+00 0.000000000000000000e+00 8.030449868525307622e+00
7.996078666595296980e+00 0.000000000000000000e+00 0.000000000000000000e+00 0.000000000000000000e+00 7.996078666595296980e+00 0.000000000000000000e+00 0.000000000000000000e+00 0.000000000000000000e+00 8.039034546674315607e+00
7.998367008625911545e+00 0.000000000000000000e+00 0.000000000000000000e+00 0.000000000000000000e+00 7.998367008625911545e+00 0.000000000000000000e+00 0.000000000000000000e+00 0.000000000000000000e+00 8.041335181949166966e+00
7.996000096822568182e+00 0.000000000000000000e+00 0.000000000000000000e+00 0.000000000000000000e+00 7.996000096822568182e+00 0.000000000000000000e+00 0.000000000000000000e+00 0.000000000000000000e+00 8.038955554815016669e+00
7.990658131176531676e+00 0.000000000000000000e+00 0.000000000000000000e+00 0.000000000000000000e+00 7.990658131176531676e+00 0.000000000000000000e+00 0.000000000000000000e+00 0.000000000000000000e+00 8.033584891498172453e+00
7.981594431096918463e+00 0.000000000000000000e+00 0.000000000000000000e+00 0.000000000000000000e+00 7.981594431096918463e+00 0.000000000000000000e+00 0.000000000000000000e+00 0.000000000000000000e+00 8.024472500149840926e+00
7.967831147979520523e+00 0.000000000000000000e+00 0.000000000000000000e+00 0.000000000000000000e+00 7.967831147979520523e+00 0.000000000000000000e+00 0.000000000000000000e+00 0.000000000000000000e+00 8.010635279048052837e+00
7.951221470395826607e+00 0.000000000000000000e+00 0.000000000000000000e+00 0.000000000000000000e+00 7.951221470395826607e+00 0.000000000000000000e+00 0.000000000000000000e+00 0.000000000000000000e+00 7.993936372312988148e+00
7.932914803628513312e+00 0.000000000000000000e+00 0.000000000000000000e+00 0.000000000000000000e+00 7.932914803628513312e+00 0.000000000000000000e+00 0.000000000000000000e+00 0.000000000000000000e+00 7.975531359966781864e+00
7.912568812782163619e+00 0.000000000000000000e+00 0.000000000000000000e+00 0.000000000000000000e+00 7.912568812782163619e+00 0.000000000000000000e+00 0.000000000000000000e+00 0.000000000000000000e+00 7.955076068052601812e+00
7.890628570929802521e+00 0.000000000000000000e+00 0.000000000000000000e+00 0.000000000000000000e+00 7.890628570929802521e+00 0.000000000000000000e+00 0.000000000000000000e+00 0.000000000000000000e+00 7.933017960626710163e+00
7.868474177837160966e+00 0.000000000000000000e+00 0.000000000000000000e+00 0.000000000000000000e+00 7.868474177837160966e+00 0.000000000000000000e+00 0.000000000000000000e+00 0.000000000000000000e+00 7.910744551514160783e+00
7.847379135671575412e+00 0.000000000000000000e+00 0.000000000000000000e+00 0.000000000000000000e+00 7.847379135671575412e+00 0.000000000000000000e+00 0.000000000000000000e+00 0.000000000000000000e+00 7.889536184286908949e+00
7.828341824917068870e+00 0.000000000000000000e+00 0.000000000000000000e+00 0.000000000000000000e+00 7.828341824917068870e+00 0.000000000000000000e+00 0.000000000000000000e+00 0.000000000000000000e+00 7.870396602849103473e+00
7.811793451815487899e+00 0.000000000000000000e+00 0.000000000000000000e+00 0.000000000000000000e+00 7.811793451815487899e+00 0.000000000000000000e+00 0.000000000000000000e+00 0.000000000000000000e+00 7.853759329930255717e+00
7.798386533964744238e+00 0.000000000000000000e+00 0.000000000000000000e+00 0.000000000000000000e+00 7.798386533964744238e+00 0.000000000000000000e+00 0.000000000000000000e+00 0.000000000000000000e+00 7.840280388531102318e+00
7.789233666530405387e+00 0.000000000000000000e+00 0.000000000000000000e+00 0.000000000000000000e+00 7.789233666530405387e+00 0.000000000000000000e+00 0.000000000000000000e+00 0.000000000000000000e+00 7.831078350810802391e+00
7.785205926414290545e+00 0.000000000000000000e+00 0.000000000000000000e+00 0.000000000000000000e+00 7.785205926414290545e+00 0.000000000000000000e+00 0.000000000000000000e+00 0.000000000000000000e+00 7.827028973199238848e+00
7.785184967081939078e+00 0.000000000000000000e+00 0.000000000000000000e+00 0.000000000000000000e+00 7.785184967081939078e+00 0.000000000000000000e+00 0.000000000000000000e+00 0.000000000000000000e+00 7.827007901270535584e+00
7.788631851335635403e+00 0.000000000000000000e+00 0.000000000000000000e+00 0.000000000000000000e+00 7.788631851335635403e+00 0.000000000000000000e+00 0.000000000000000000e+00 0.000000000000000000e+00 7.830473302593642160e+00
7.796218310237692961e+00 0.000000000000000000e+00 0.000000000000000000e+00 0.000000000000000000e+00 7.796218310237692961e+00 0.000000000000000000e+00 0.000000000000000000e+00 0.000000000000000000e+00 7.838100516850099453e+00
7.807106218675613718e+00 0.000000000000000000e+00 0.000000000000000000e+00 0.000000000000000000e+00 7.807106218675613718e+00 0.000000000000000000e+00 0.000000000000000000e+00 0.000000000000000000e+00 7.849046916420327591e+00
7.819181125482813854e+00 0.000000000000000000e+00 0.000000000000000000e+00 0.000000000000000000e+00 7.819181125482813854e+00 0.000000000000000000e+00 0.000000000000000000e+00 0.000000000000000000e+00 7.861186691054129483e+00
7.830809894054119980e+00 0.000000000000000000e+00 0.000000000000000000e+00 0.000000000000000000e+00 7.830809894054119980e+00 0.000000000000000000e+00 0.000000000000000000e+00 0.000000000000000000e+00 7.872877930744833108e+00
7.841225121626933969e+00 0.000000000000000000e+00 0.000000000000000000e+00 0.000000000000000000e+00 7.841225121626933969e+00 0.000000000000000000e+00 0.000000000000000000e+00 0.000000000000000000e+00 7.883349110152570560e+00
7.850291945536564953e+00 0.000000000000000000e+00 0.000000000000000000e+00 0.000000000000000000e+00 7.850291945536564953e+00 0.000000000000000000e+00 0.000000000000000000e+00 0.000000000000000000e+00 7.892464642111823636e+00
7.858539433823539255e+00 0.000000000000000000e+00 0.000000000000000000e+00 0.000000000000000000e+00 7.858539433823539255e+00 0.000000000000000000e+00 0.000000000000000000e+00 0.000000000000000000e+00 7.900756436881756883e+00
7.865244077518590338e+00 0.000000000000000000e+00 0.000000000000000000e+00 0.000000000000000000e+00 7.865244077518590338e+00 0.000000000000000000e+00 0.000000000000000000e+00 0.000000000000000000e+00 7.907497098714476813e+00
7.869086461451671788e+00 0.000000000000000000e+00 0.000000000000000000e+00 0.000000000000000000e+00 7.869086461451671788e+00 0.000000000000000000e+00 0.000000000000000000e+00 0.000000000000000000e+00 7.911360124388737702e+00
7.869768310050746507e+00 0.000000000000000000e+00 0.000000000000000000e+00 0.000000000000000000e+00 7.869768310050746507e+00 0.000000000000000000e+00 0.000000000000000000e+00 0.000000000000000000e+00 7.912045635958726564e+00
7.867660313530008942e+00 0.000000000000000000e+00 0.000000000000000000e+00 0.000000000000000000e+00 7.867660313530008942e+00 0.000000000000000000e+00 0.000000000000000000e+00 0.000000000000000000e+00 7.909926315032176802e+00
7.863041115908501411e+00 0.000000000000000000e+00 0.000000000000000000e+00 0.000000000000000000e+00 7.863041115908501411e+00 0.000000000000000000e+00 0.000000000000000000e+00 0.000000000000000000e+00 7.905282302533510830e+00
7.856261880409822318e+00 0.000000000000000000e+00 0.000000000000000000e+00 0.000000000000000000e+00 7.856261880409822318e+00 0.000000000000000000e+00 0.000000000000000000e+00 0.000000000000000000e+00 7.898466648180469285e+00
7.847935785593330493e+00 0.000000000000000000e+00 0.000000000000000000e+00 0.000000000000000000e+00 7.847935785593330493e+00 0.000000000000000000e+00 0.000000000000000000e+00 0.000000000000000000e+00 7.890095824599450580e+00
7.838784307945991792e+00 0.000000000000000000e+00 0.000000000000000000e+00 0.000000000000000000e+00 7.838784307945991792e+00 0.000000000000000000e+00 0.000000000000000000e+00 0.000000000000000000e+00 7.880895184131107456e+00
7.829883102611010059e+00 0.000000000000000000e+00 0.000000000000000000e+00 0.000000000000000000e+00 7.829883102611010059e+00 0.000000000000000000e+00 0.000000000000000000e+00 0.000000000000000000e+00 7.871946160468382914e+00
7.822690038280454949e+00 0.000000000000000000e+00 0.000000000000000000e+00 0.000000000000000000e+00 7.822690038280454949e+00 0.000000000000000000e+00 0.000000000000000000e+00 0.000000000000000000e+00 7.864714454146262135e+00
7.818927856150708955e+00 0.000000000000000000e+00 0.000000000000000000e+00 0.000000000000000000e+00 7.818927856150708955e+00 0.000000000000000000e+00 0.000000000000000000e+00 0.000000000000000000e+00 7.860932061128855786e+00
7.818971247417935366e+00 0.000000000000000000e+00 0.000000000000000000e+00 0.000000000000000000e+00 7.818971247417935366e+00 0.000000000000000000e+00 0.000000000000000000e+00 0.000000000000000000e+00 7.860975685499741239e+00
7.821733122763749435e+00 0.000000000000000000e+00 0.000000000000000000e+00 0.000000000000000000e+00 7.821733122763749435e+00 0.000000000000000000e+00 0.000000000000000000e+00 0.000000000000000000e+00 7.863752397966147889e+00
7.826977873088386772e+00 0.000000000000000000e+00 0.000000000000000000e+00 0.000000000000000000e+00 7.826977873088386772e+00 0.000000000000000000e+00 0.000000000000000000e+00 0.000000000000000000e+00 7.869025323709599284e+00
7.835253487443458731e+00 0.000000000000000000e+00 0.000000000000000000e+00 0.000000000000000000e+00 7.835253487443458731e+00 0.000000000000000000e+00 0.000000000000000000e+00 0.000000000000000000e+00 7.877345395643759574e+00
7.846425957313357458e+00 0.000000000000000000e+00 0.000000000000000000e+00 0.000000000000000000e+00 7.846425957313357458e+00 0.000000000000000000e+00 0.000000000000000000e+00 0.000000000000000000e+00 7.888577885343165619e+00
7.860202724537136199e+00 0.000000000000000000e+00 0.000000000000000000e+00 0.000000000000000000e+00 7.860202724537136199e+00 0.000000000000000000e+00 0.000000000000000000e+00 0.000000000000000000e+00 7.902428662988919328e+00
7.876180009819071515e+00 0.000000000000000000e+00 0.000000000000000000e+00 0.000000000000000000e+00 7.876180009819071515e+00 0.000000000000000000e+00 0.000000000000000000e+00 0.000000000000000000e+00 7.918491780135780367e+00
7.894139344753731358e+00 0.000000000000000000e+00 0.000000000000000000e+00 0.000000000000000000e+00 7.894139344753731358e+00 0.000000000000000000e+00 0.000000000000000000e+00 0.000000000000000000e+00 7.936547594742074274e+00
7.913372578512445799e+00 0.000000000000000000e+00 0.000000000000000000e+00 0.000000000000000000e+00 7.913372578512445799e+00 0.000000000000000000e+00 0.000000000000000000e+00 0.000000000000000000e+00 7.955884151706028362e+00
7.932010902466640090e+00 0.000000000000000000e+00 0.000000000000000000e+00 0.000000000000000000e+00 7.932010902466640090e+00 0.000000000000000000e+00 0.000000000000000000e+00 0.000000000000000000e+00 7.974622602941860094e+00
7.947644388948583938e+00 0.000000000000000000e+00 0.000000000000000000e+00 0.000000000000000000e+00 7.947644388948583938e+00 0.000000000000000000e+00 0.000000000000000000e+00 0.000000000000000000e+00 7.990340074361362177e+00
7.958451340609515867e+00 0.000000000000000000e+00 0.000000000000000000e+00 0.000000000000000000e+00 7.958451340609515867e+00 0.000000000000000000e+00 0.000000000000000000e+00 0.000000000000000000e+00 8.001205082244105427e+00
7.965156120279785590e+00 0.000000000000000000e+00 0.000000000000000000e+00 0.000000000000000000e+00 7.965156120279785590e+00 0.000000000000000000e+00 0.000000000000000000e+00 0.000000000000000000e+00 8.007945880784038906e+00
7.969558881814164941e+00 0.000000000000000000e+00 0.000000000000000000e+00 0.000000000000000000e+00 7.969558881814164941e+00 0.000000000000000000e+00 0.000000000000000000e+00 0.000000000000000000e+00 8.012372294473268042e+00
7.971240254402677472e+00 0.000000000000000000e+00 0.000000000000000000e+00 0.000000000000000000e+00 7.971240254402677472e+00 0.000000000000000000e+00 0.000000000000000000e+00 0.000000000000000000e+00 8.014062699594788342e+00
7.967893028799315935e+00 0.000000000000000000e+00 0.000000000000000000e+00 0.000000000000000000e+00 7.967893028799315935e+00 0.000000000000000000e+00 0.000000000000000000e+00 0.000000000000000000e+00 8.010697492299934552e+00