3.833233176999999853e-03 7.771832900917000408e+00 4.561904026999999764e-03 3.887654645703999989e+00 7.769570917490000284e+00 7.960773484000000649e-03 7.759827589641999701e+00 3.889809461137000213e+00 7.813560193693000144e+00 3.897768744933999940e+00 3.873223911355000215e+00 2.200299569000000073e-03 2.316394611999999988e-03 9.061981069000000361e-03 3.902051205973000148e+00 3.885601985645000145e+00 7.771753465886999557e+00 3.910272022026000105e+00 7.763559750597999631e+00 3.885252761690999979e+00 3.908712253125000036e+00 3.891374635125000037e+00 3.892445338163999846e+00 3.898984266774999874e+00 1.958896270489999925e+00 1.947147679428999911e+00 1.954562119591999991e+00 5.831010459258999745e+00 1.937613879634999980e+00 1.962798769548000033e+00 1.941624212160000029e+00 5.843586700748000240e+00 1.952713346266000016e+00 5.834530431206999879e+00 5.819514027660999567e+00 1.947068072146000084e+00 1.940789476853000073e+00 1.936669934590999897e+00 5.853361560219999760e+00 5.831764964342999846e+00 1.950436853722000041e+00 5.859681033822999652e+00 1.939756922836999964e+00 5.824604231696000056e+00 5.847996776131999752e+00 5.829489468481000358e+00 5.825249829257000300e+00 5.873378365326000328e+00 7.772674829314000000e+00 1.797596056619999993e+00 1.955172619889999908e+00 3.875582693280000157e+00 2.118669441620999905e+00 1.965161265484000053e+00 1.580910456999999950e-03 6.009283435847000199e+00 1.941753857174000064e+00 3.897924187332999946e+00 5.673287606501999925e+00 1.934794066472000029e+00 4.271086739999999972e-03 2.107216571029999930e+00 5.859923610414999651e+00 3.898295973285999860e+00 1.781607086803999929e+00 5.854978445183999902e+00 7.766931103534999714e+00 5.659354197715000367e+00 5.846722188694999822e+00 3.903038618640000124e+00 6.014554603152999945e+00 5.863706053339999613e+00 2.122388513421999967e+00 1.357126344599999916e-02 1.953012340929999979e+00 5.661990509414000172e+00 7.768264385714999776e+00 1.972275937060000039e+00 1.767833265271000043e+00 3.895751361528000167e+00 1.953283506715000062e+00 5.981765928739999794e+00 3.915246254262000125e+00 1.941105039848000091e+00 1.775554276158999967e+00 7.752839437601999784e+00 5.876822935792000102e+00 5.993558223595999657e+00 7.769776043761000395e+00 5.840574137186999693e+00 2.104620341702000186e+00 3.878613663137000067e+00 5.882682595330000375e+00 5.620478058650999920e+00 3.886827132900999793e+00 5.885527767219000062e+00 1.962536744217999951e+00 1.929811527979000019e+00 2.013516818499999986e-02 5.816904404697999631e+00 1.932849541081000044e+00 7.801692055354999766e+00 1.947466550186000012e+00 5.809031835802000110e+00 7.805867793074999561e+00 5.833850300615000428e+00 5.825538724405999957e+00 4.776623742000000311e-03 1.930323165916999928e+00 1.951177067825000000e+00 3.898863859353999928e+00 5.827525698341999849e+00 1.934167830572000035e+00 3.900630112187999821e+00 1.952373414325000001e+00 5.840001938459000286e+00 3.909513770369999808e+00 5.830331686850000139e+00 5.840523878126999691e+00 3.926904788922000122e+00
2.272151817500000018e-02 7.765514714420000075e+00 2.645356379700000010e-02 3.893069037394000009e+00 7.750963493004999982e+00 4.631586135299999712e-02 7.695841096386000224e+00 3.905680611194000118e+00 7.807174129743000179e+00 3.950938566471000168e+00 3.807733152992000214e+00 1.322380802600000085e-02 1.224915650400000035e-02 5.305447220600000013e-02 3.875671677475000187e+00 3.882593023451000214e+00 7.763667863262000424e+00 3.925121818321000156e+00 7.716693200791000073e+00 3.879144179465999986e+00 3.913759202991000219e+00 3.914677070414000148e+00 3.922383696404000197e+00 3.857562077809999934e+00 2.030812638001000092e+00 1.971760367914999978e+00 1.954412326848000037e+00 5.839861888597999595e+00 1.903403280408999976e+00 2.004522998177999948e+00 1.936094521842000038e+00 5.904382495319000057e+00 1.939942442620000040e+00 5.853821899040999810e+00 5.776122081727000257e+00 1.920422965321000097e+00 1.933574813681000037e+00 1.906045892210999959e+00 5.818095626855999569e+00 5.836441488391000298e+00 1.977809337697999936e+00 5.855251373826999561e+00 1.925352902550000023e+00 5.796827243920000150e+00 5.791130424580000380e+00 5.824118042611000412e+00 5.809383908695999743e+00 5.926670879990999730e+00 7.750976103606999956e+00 1.946277178314000045e+00 1.958458828603999891e+00 3.849906330127999876e+00 2.118816514151999897e+00 2.024253257783000137e+00 1.845004153499999952e-02 6.027916062570000122e+00 1.888400673212000003e+00 3.934725606310999879e+00 5.772707128999999604e+00 1.848874494604000107e+00 2.313132327200000116e-02 2.049674806825000140e+00 5.854562947945000317e+00 3.929749438850000054e+00 1.846921192164000081e+00 5.817748212479999737e+00 7.749165189691000322e+00 5.679941842892000103e+00 5.780314493519999708e+00 3.956565097902999817e+00 6.049485123949000176e+00 5.876170853574000041e+00 2.129358375570999939e+00 6.216578210999999798e-02 1.954135672702999926e+00 5.705265148937000319e+00 7.771928152533999601e+00 2.055553240937999959e+00 1.774931593692999909e+00 3.945849410671999902e+00 1.958301594853999905e+00 5.866712659217999892e+00 4.008886106442999697e+00 1.886732309114999895e+00 1.815486119218000072e+00 7.681106928080000174e+00 5.948256101183000411e+00 5.938812149809000296e+00 7.768432439923000032e+00 5.750501170395000194e+00 2.032786504506999936e+00 3.834071201776999782e+00 5.976350953316999615e+00 5.477948839750999888e+00 3.879600416584000122e+00 5.993485086545000229e+00 2.051458241864999810e+00 1.864182391321000054e+00 9.040172216700000096e-02 5.757899018459999851e+00 1.881940558763000038e+00 7.759112243674000098e+00 1.964230472591000032e+00 5.716925732416999750e+00 7.774470339678000386e+00 5.861778671507999583e+00 5.812126814427999832e+00 2.523847565800000151e-02 1.868852162120999916e+00 1.984238512237999963e+00 3.885080785836999784e+00 5.819694810931999918e+00 1.906445683917000089e+00 3.865630604804000114e+00 1.998300943592999923e+00 5.885413024431000117e+00 3.910531172830999935e+00 5.834410519835000031e+00 5.876549281625999654e+00 3.996076026663999858e+00
4.127209355099999838e-02 7.764406406318999920e+00 4.442788496700000173e-02 3.899792457249000144e+00 7.733740080337000222e+00 7.914148197299999965e-02 7.645237659496999960e+00 3.921367525427000178e+00 7.805284346736000245e+00 3.993556459980000195e+00 3.748326654983999973e+00 2.558846543100000079e-02 1.723618267900000126e-02 9.248795798999999429e-02 3.853627261593000064e+00 3.887138560927000164e+00 7.755880762703999842e+00 3.944177622554000173e+00 7.677839778830000128e+00 3.875862232529000195e+00 3.916323892197000056e+00 3.936952767626999972e+00 3.955564344327000104e+00 3.821299987623000050e+00 2.078990667454000185e+00 2.014741778388999816e+00 1.942812963009000082e+00 5.861087525193999781e+00 1.855116022375999929e+00 2.031833342246999852e+00 1.941559706008999964e+00 5.939709484451999977e+00 1.903038740808999929e+00 5.862136093862000408e+00 5.770060379831000397e+00 1.918314776312999959e+00 1.944465680480000014e+00 1.885780239752999909e+00 5.796906727605000142e+00 5.828364090884000426e+00 1.976394006550999949e+00 5.863262735613999688e+00 1.920117342464999988e+00 5.767251528011000161e+00 5.769080267491999869e+00 5.809477267663000433e+00 5.818925420751000388e+00 5.954096667394000342e+00 7.698592178638000050e+00 2.075310747982999970e+00 1.947457913580000088e+00 3.901135007491999929e+00 2.132759992513999947e+00 2.089434283734000086e+00 4.163937284400000272e-02 6.053825263111000332e+00 1.860637326236999955e+00 3.927498366791999818e+00 5.875796321915999876e+00 1.794738195876999898e+00 1.623349543600000056e-02 2.008986751122999959e+00 5.858430370637999651e+00 3.887502209562999855e+00 1.883259032733999971e+00 5.762512392168999575e+00 7.766913751900999863e+00 5.679723562996000119e+00 5.738202483452999658e+00 3.934738354842000074e+00 6.060265297884000368e+00 5.890759675581000110e+00 2.109716378789999958e+00 6.234254949700000076e-02 1.973943418975000030e+00 5.755443432565000350e+00 5.586616681099999815e-02 2.105506455903999985e+00 1.797807966531999924e+00 3.991055737082000121e+00 1.988978981075000041e+00 5.780514996064000321e+00 3.955490851863999957e+00 1.863713204738999929e+00 1.843966353821999915e+00 7.692998997823999652e+00 5.997885088797000108e+00 5.912751555447999685e+00 2.977267673700000061e-02 5.708110285007999884e+00 1.972111977823999940e+00 3.792961299993999891e+00 6.024668144911999867e+00 5.429034534249000288e+00 3.868371710681000053e+00 6.047301525222000151e+00 2.115594265344999947e+00 1.811583751277999976e+00 8.659992583999999438e-02 5.722517732668999990e+00 1.836133465402999931e+00 7.778986312653000113e+00 1.966533960403000103e+00 5.673933623884000355e+00 7.786691966680000299e+00 5.917984642678000284e+00 5.831671062700999997e+00 2.615420887800000080e-02 1.820746027767000008e+00 1.994368052436999994e+00 3.937113187321000130e+00 5.827648024712999586e+00 1.941497328757000096e+00 3.860624640761999959e+00 2.045469746263000044e+00 5.914008936359000046e+00 3.888963769216000177e+00 5.843447334869000365e+00 5.852327751955000323e+00 3.977980559309000075e+00
6.071419492099999760e-02 7.771654379829000092e+00 5.535654353000000333e-02 3.906361311852000195e+00 7.719931497852999591e+00 1.032018083200000047e-01 7.612054279859999717e+00 3.934204294800999868e+00 7.807976260362000431e+00 4.019718797042999725e+00 3.696455574569999847e+00 4.040845226099999687e-02 1.892728050899999959e-02 1.260673442799999933e-01 3.838451403256999850e+00 3.898292467567999964e+00 7.749918788410999682e+00 3.967362736828000003e+00 7.649738067886000081e+00 3.874106099070000031e+00 3.916120852728000035e+00 3.957286018527999882e+00 3.990648778689000142e+00 3.792272513173999826e+00 2.100847448682999996e+00 2.074088440690999846e+00 1.921965908528999956e+00 5.891146352043000078e+00 1.819586621236999990e+00 2.037912257627000123e+00 1.958516224840999964e+00 5.944070355772000269e+00 1.845264973361000038e+00 5.857372431527999801e+00 5.787164063570999772e+00 1.947323754132999962e+00 1.970721097101999941e+00 1.876235892743999933e+00 5.794952009634999790e+00 5.811581393643000304e+00 1.942736321366999919e+00 5.883151746934999871e+00 1.921872254403000024e+00 5.738895928429999849e+00 5.783316342518999953e+00 5.785034196409999829e+00 5.854765098784000088e+00 5.946147216395000434e+00 7.687307050549000209e+00 2.163421392447999914e+00 1.916772049398999922e+00 3.946972617015000129e+00 2.144755164684000182e+00 2.151664895629000096e+00 2.495699764999999987e-02 6.074033068650000367e+00 1.868909704260000026e+00 3.926971939186000071e+00 5.969319121179999854e+00 1.780445569329000000e+00 7.736094567140000322e+00 1.993402891032000079e+00 5.884926593598000188e+00 3.813496416291000113e+00 1.885424850626999937e+00 5.695795046919999827e+00 2.889081886999999866e-03 5.668672847498999801e+00 5.728822992439000394e+00 3.881965619239000187e+00 6.037823753921999881e+00 5.907828611132000418e+00 2.056045307036999947e+00 5.932600653700000060e-02 2.011666781929000170e+00 5.811169082781000306e+00 6.263108446399999474e-02 2.117634008233999943e+00 1.850176710611000086e+00 3.987245047724000013e+00 2.043930043445000067e+00 5.735642494888000265e+00 3.875290245163999892e+00 1.868681844056000019e+00 1.851522891986999930e+00 7.748319383775999825e+00 6.015849552160999814e+00 5.907906498951000174e+00 5.587644278099999917e-02 5.718182334740999906e+00 1.929238017926999893e+00 3.802607927582999814e+00 6.021982447637999947e+00 5.504240854400999972e+00 3.888938653195999962e+00 6.030881004561999603e+00 2.151761731895000196e+00 1.792847226254999926e+00 6.820347840500000369e-02 5.708014868603999759e+00 1.794536060241000097e+00 3.709474774999999870e-03 1.949652424283000007e+00 5.696341906177999626e+00 3.771010489000000201e-03 5.994474487797999629e+00 5.892740457017000111e+00 7.826774820088999718e+00 1.789871166016000048e+00 1.975533289036000006e+00 3.975021260320000138e+00 5.857058786426000196e+00 2.042550626679000114e+00 3.927985005042000211e+00 2.090825608833999816e+00 5.917902485093000209e+00 3.875801447315999848e+00 5.848856114036999898e+00 5.767550043377999813e+00 3.880082842829999823e+00
8.136466846900000660e-02 7.788144789364999987e+00 5.818201694100000321e-02 3.911444663854000137e+00 7.712105742361000438e+00 1.170938184360000023e-01 7.594292912146999974e+00 3.943374351200000127e+00 7.812879461815000148e+00 4.032218387034999907e+00 3.653692378126999873e+00 5.394645307100000287e-02 2.277594419899999986e-02 1.526507779740000070e-01 3.831529640478000154e+00 3.910122489383999866e+00 7.747473740312999624e+00 3.991233105922999957e+00 7.633496686268999909e+00 3.872925386842000162e+00 3.915606058600999972e+00 3.974787673253000087e+00 4.024507975885000199e+00 3.772305582153999914e+00 2.100548201881000221e+00 2.130984939069000106e+00 1.904568003805999998e+00 5.922267600274000010e+00 1.825415349925999964e+00 2.031692984173000038e+00 1.975704358760000057e+00 5.931531504496000196e+00 1.796335751920000057e+00 5.849425955078999984e+00 5.803584546837000424e+00 1.993082916319999898e+00 1.991461948196999954e+00 1.873539156244000026e+00 5.809046771832999667e+00 5.802957874489999668e+00 1.897493248488999917e+00 5.906452819815999788e+00 1.920897658434999933e+00 5.714726374946000220e+00 5.809536781731999611e+00 5.763512575327999876e+00 5.900299857142999649e+00 5.917803182073000379e+00 7.744747929480999993e+00 2.191388950857999784e+00 1.872657516297000058e+00 3.926808768879999967e+00 2.125042839435999920e+00 2.195519577965999947e+00 7.771965014769000035e+00 6.063976357039999598e+00 1.913295917159999915e+00 3.956743433378000052e+00 6.028728248275999846e+00 1.799438177130999961e+00 7.644882246082000066e+00 2.004094655997000096e+00 5.947730246464000281e+00 3.792306606947000169e+00 1.870810126847999966e+00 5.644328389001000090e+00 7.783398506482999579e+00 5.672943942126000394e+00 5.745296209315999825e+00 3.863944891036999785e+00 5.991049407288000062e+00 5.928881102040000073e+00 1.977674271326999911e+00 7.608523305200000364e-02 2.045446053063999958e+00 5.865409476209999973e+00 7.775725570258999575e+00 2.114916775434999785e+00 1.935115759717999984e+00 3.941772157402000154e+00 2.096834904301999813e+00 5.733912163597000067e+00 3.890246740594000219e+00 1.873900149955000094e+00 1.835293766776999957e+00 7.794026334167999615e+00 6.005260695563999995e+00 5.898450372190000124e+00 1.123390509799999937e-02 5.752161533510999902e+00 1.910605294031000101e+00 3.877699488349000134e+00 5.988225179384000008e+00 5.660364611537000101e+00 3.943694122106999878e+00 5.980312721987999680e+00 2.168496861352000149e+00 1.828226468031999952e+00 8.077225553300000638e-02 5.694449836960999711e+00 1.759479470360000075e+00 5.011640588900000137e-02 1.917873956795000057e+00 5.770404830556000064e+00 3.196649420299999683e-02 6.057128495097000354e+00 5.983682461199999914e+00 7.779988530144000158e+00 1.766462001008999971e+00 1.938244622205000045e+00 3.947027200153999882e+00 5.904111901792999717e+00 2.160588933471999873e+00 4.009300255268000157e+00 2.128217618813000200e+00 5.895334549256999956e+00 3.908376479718000063e+00 5.837846248874000388e+00 5.667789541984999957e+00 3.780812367569999832e+00
1.013607704419999950e-01 5.180915466999999781e-03 5.497415683199999986e-02 3.915950101652999837e+00 7.711119877985000315e+00 1.216250461700000007e-01 7.587802190054000029e+00 3.952806388292999795e+00 7.817014595349999873e+00 4.037723353036000162e+00 3.623561540405999981e+00 6.137558712900000046e-02 3.327453560600000110e-02 1.693131184889999918e-01 3.832505924353000193e+00 3.916662957273000067e+00 7.748986833418999964e+00 4.011305141421999565e+00 7.631593663392999716e+00 3.875725000494000039e+00 3.918740801908000115e+00 3.988089992883999901e+00 4.053957585874999658e+00 3.763796058137999889e+00 2.076588774125999848e+00 2.155391772844999831e+00 1.908296728328999992e+00 5.950517392222000268e+00 1.861959052508000090e+00 2.022931441168000166e+00 1.981347987034000058e+00 5.925374165304999607e+00 1.795931036752999921e+00 5.855738632631999785e+00 5.819593708521000330e+00 2.021276935786000095e+00 1.993025874036999934e+00 1.873623096408000066e+00 5.823105350088000343e+00 5.812598430929000415e+00 1.864698965471000003e+00 5.925743872161000070e+00 1.905160236960999898e+00 5.704855062308999969e+00 5.821664472565999837e+00 5.763779191038000072e+00 5.927868136139999855e+00 5.897397075575000258e+00 7.805545388328999579e+00 2.155131253084999976e+00 1.827719426528999991e+00 3.904320180970000109e+00 2.059977003256999950e+00 2.215500700868000106e+00 7.776213911870000217e+00 6.000951575855999920e+00 1.979668051114999994e+00 3.959817507050999996e+00 6.040144746615999871e+00 1.836002245985999926e+00 7.604227599817000360e+00 2.025165777409999812e+00 6.050550850686000182e+00 3.841782180342999897e+00 1.862016558177999936e+00 5.633835524960000285e+00 7.776887927958999747e+00 5.714492308205000093e+00 5.766596266511999858e+00 3.888443635983000135e+00 5.939608932722999945e+00 5.957967384483000117e+00 1.894078816728999914e+00 6.758703031099999592e-02 2.049233683798000083e+00 5.912426822895000100e+00 7.772964222656000288e+00 2.122392501471999982e+00 2.038323700547000072e+00 3.947966228478000161e+00 2.117535227957000110e+00 5.764909629838999905e+00 3.944790772989000160e+00 1.848049415643999938e+00 1.804509228341000027e+00 3.405109086900000304e-02 5.978705929469000147e+00 5.871614274015000134e+00 7.757980395937000395e+00 5.766087527715000327e+00 1.921081283868999900e+00 3.931320216877999929e+00 5.951479493663000220e+00 5.821215027902000294e+00 3.981499855137000221e+00 5.949304674416000083e+00 2.175505503495000159e+00 1.917397881587000086e+00 7.823162436300000466e-02 5.667004386700000396e+00 1.739259443227000101e+00 9.247040701799999485e-02 1.880671873547999917e+00 5.867398571755000347e+00 1.515617804200000002e-02 6.076749510744999583e+00 6.080952179504000021e+00 7.727101335400000437e+00 1.739911150186999933e+00 1.903834055022999960e+00 3.923352159104999792e+00 5.952539720875999585e+00 2.227545305103999951e+00 4.015016498441999815e+00 2.154647282687999876e+00 5.858716454020999720e+00 3.976471472561000198e+00 5.805014574607000100e+00 5.601049643536000211e+00 3.795822049519999908e+00
1.186690654660000066e-01 1.858605898399999859e-02 4.771407705800000121e-02 3.920820201756999968e+00 7.715718287280999732e+00 1.180364632979999939e-01 7.591202164997000068e+00 3.966359352870000077e+00 7.817929704311000094e+00 4.038790243320000251e+00 3.609025031229000202e+00 5.978618492099999765e-02 5.000662520899999686e-02 1.732093342500000133e-01 3.840729936527000010e+00 3.916133255486999865e+00 7.754275029013999898e+00 4.025525934084999591e+00 7.646048515403999879e+00 3.887272185122999879e+00 3.928556827301000087e+00 3.995383399687999937e+00 4.074770475081000320e+00 3.768853344392999904e+00 2.035602115231999854e+00 2.136200335867000089e+00 1.936569630861000091e+00 5.970250647158000135e+00 1.911047735022999960e+00 2.016741647351000033e+00 1.971000498099999998e+00 5.935621801396999686e+00 1.843661598301999938e+00 5.884174534372999865e+00 5.845624576999999711e+00 2.023663291895999805e+00 1.982960577153999981e+00 1.877625940059000076e+00 5.829227259449999643e+00 5.838649095981000237e+00 1.854624278891999989e+00 5.936030458282999689e+00 1.872611231652000052e+00 5.719006560313999898e+00 5.818091101507000040e+00 5.790215429440999984e+00 5.914704690219999783e+00 5.896555633449000133e+00 1.047439904400000038e-02 2.083050112857999903e+00 1.791080398505999982e+00 3.914089068192000198e+00 1.962347360554999920e+00 2.213802846805000168e+00 1.246517631899999971e-02 5.883173337552999982e+00 2.055101560539000172e+00 3.922244118800000123e+00 6.012816457883999988e+00 1.877911733851999943e+00 7.668958317301999728e+00 2.030460392339000109e+00 6.178416237173999903e+00 3.904723119281999999e+00 1.870742008791999922e+00 5.673540798838000221e+00 7.810673135712000281e+00 5.797044290138999578e+00 5.773738194923000222e+00 3.920213334315000075e+00 5.897941709273999855e+00 5.998087552075999973e+00 1.827338010025999937e+00 1.666414865400000014e-02 2.015484998672000039e+00 5.950927326142999796e+00 6.092879893800000335e-02 2.152182739240000142e+00 2.137724563303000203e+00 4.023000204268000424e+00 2.094579114661000219e+00 5.814364298547999965e+00 3.970513936563000001e+00 1.782525465411999965e+00 1.777625845084999989e+00 8.397788103299999585e-02 5.945171968198000201e+00 5.838209384648999745e+00 7.810677824725999585e+00 5.728297148983999776e+00 1.953125427600000075e+00 3.884759954929999815e+00 5.927834141455000427e+00 5.933888882084000116e+00 3.956623655177000209e+00 5.969186485018999733e+00 2.174859328110000156e+00 2.034800169148999860e+00 3.626291809499999907e-02 5.628372660772000380e+00 1.743104843565999929e+00 1.078945798829999969e-01 1.847398139479000001e+00 5.966756501765000387e+00 7.853478194864999651e+00 6.052505100974999941e+00 6.162471700422999632e+00 7.739494465754000352e+00 1.712740303624999960e+00 1.897623307524000102e+00 3.954068313901000220e+00 5.995134129254999777e+00 2.206269101808000066e+00 3.937612672967000016e+00 2.168015981862999819e+00 5.835756641688999657e+00 4.027305887210999913e+00 5.762177681544000230e+00 5.603126760429000264e+00 3.905821770920999914e+00
1.323342145799999980e-01 3.463619292000000294e-02 3.607590276000000040e-02 3.925043103244000076e+00 7.724153726883000282e+00 1.073869836100000003e-01 7.607582208430000215e+00 3.982241891317999993e+00 7.815196400904000029e+00 4.032570224867000341e+00 3.610647831892999982e+00 4.799969617299999769e-02 6.878607647100000444e-02 1.643281247089999897e-01 3.855830762735000139e+00 3.910460892369000074e+00 7.763652474844000118e+00 4.034068325629999840e+00 7.675730186450000048e+00 3.907342564862000156e+00 3.945245022922999834e+00 3.993987994355999938e+00 4.082314900002000257e+00 3.786985623850000149e+00 1.996005195801000109e+00 2.093270610602000037e+00 1.971340276172999895e+00 5.972809559356000442e+00 1.959562001389999919e+00 2.011312907294000141e+00 1.949679692789000107e+00 5.953837294192999785e+00 1.906579779697999966e+00 5.926059071904999698e+00 5.886966991236000091e+00 2.013341247807999945e+00 1.969132513326000034e+00 1.898679201181000087e+00 5.839502236161999704e+00 5.879201747086000296e+00 1.867165879329999889e+00 5.941232830837000378e+00 1.837573927795999928e+00 5.740548672784999695e+00 5.819381479646000166e+00 5.827113944256000266e+00 5.870480565070000267e+00 5.915171449176000351e+00 2.020655661100000111e-02 2.018050363142999792e+00 1.765630039349000091e+00 3.904061472742000216e+00 1.861391117948000051e+00 2.195503613617999950e+00 3.191800444299999762e-02 5.735782532646999776e+00 2.140879949533999849e+00 3.919263616154000207e+00 5.976101920458999572e+00 1.924626662407000088e+00 7.796190801929999914e+00 2.004270624420000146e+00 6.294565013637000384e+00 3.946491236378999901e+00 1.899381537942000042e+00 5.746823814855000379e+00 2.738709858600000061e-02 5.902015403085999701e+00 5.763968092574000224e+00 3.951375539014999827e+00 5.870791362050000295e+00 6.046596662530999922e+00 1.790106860164000002e+00 7.815076644202999745e+00 1.967425845116000049e+00 5.987142735827999829e+00 1.283037218939999946e-01 2.198418878738999993e+00 2.210640761860000136e+00 4.047787027374999624e+00 2.037377579150999818e+00 5.866777128248999773e+00 3.992370661819999889e+00 1.710451889300999895e+00 1.773514234177000048e+00 9.611630861299999551e-02 5.907480278801999773e+00 5.819482482445000215e+00 7.601001174099999980e-02 5.645249429614000114e+00 1.985801890244000001e+00 3.827058596351000208e+00 5.908340322960000002e+00 5.986195838935000069e+00 3.901405465688000174e+00 6.031305520205999748e+00 2.160152227749000176e+00 2.136023677952000099e+00 2.199941230500000039e-02 5.596463861496999925e+00 1.770988800715999956e+00 6.406904239600000328e-02 1.821435942993999912e+00 6.048335123648000078e+00 7.879636266159000257e+00 6.007216956571999944e+00 6.215317974028000236e+00 7.850067465219000340e+00 1.691052185128000040e+00 1.934162818030999986e+00 3.983674548323000053e+00 6.041336250200999736e+00 2.128336690049000168e+00 3.847444024721999867e+00 2.165338839467000120e+00 5.849084690227000394e+00 4.021545078453000244e+00 5.735773245236999607e+00 5.684316581160000048e+00 3.981704529963999928e+00
1.418421119459999935e-01 5.538242112200000150e-02 1.960255721700000092e-02 3.926734617484000101e+00 7.735462733381000433e+00 9.162967137300000176e-02 7.641820087860000221e+00 3.995686560196999970e+00 7.813600598720999990e+00 4.015359211797999706e+00 3.628023098523000201e+00 2.756816039499999926e-02 8.530324294799999929e-02 1.442936098039999948e-01 3.877043673840999904e+00 3.902616107627999931e+00 7.777245586752999706e+00 4.037266878339999643e+00 7.717702890344999567e+00 3.931890292618000160e+00 3.965505389857999941e+00 3.982425298468999841e+00 4.076067382651999971e+00 3.814288101970999989e+00 1.970632242493999930e+00 2.048409086522999800e+00 1.990470093381000005e+00 5.956617370799000000e+00 1.995326546722000050e+00 1.995301305959999993e+00 1.930449555749000012e+00 5.960570926012000115e+00 1.963103223222999905e+00 5.963950710414000156e+00 5.943880468993000044e+00 1.990599943264000027e+00 1.955790281599000036e+00 1.933695370256000023e+00 5.870498168962999586e+00 5.923776427970000036e+00 1.890282703722000024e+00 5.952956055337000230e+00 1.824940998468000064e+00 5.762076364490000380e+00 5.838217840532999858e+00 5.850688611617999690e+00 5.820043016147000259e+00 5.946651524267999811e+00 3.500456177999999863e-02 1.987047123490000011e+00 1.752429441424999901e+00 3.862874898100999932e+00 1.778020832189000089e+00 2.171085148244999985e+00 2.803483013999999787e-03 5.601053550627000277e+00 2.232830852569999802e+00 3.977664747793999922e+00 5.961448464026999794e+00 1.974993100630999976e+00 5.225453833799999920e-02 1.958177555045000018e+00 6.359100038611000372e+00 3.963708063762000133e+00 1.949507976405999932e+00 5.820600170718000399e+00 1.933309043900000024e-02 5.993430485166999944e+00 5.750643393088999744e+00 3.998385413692000068e+00 5.854475235973000125e+00 6.096727572679999874e+00 1.780633677983999963e+00 7.841627436819999630e+00 1.939009531116000051e+00 6.027955794492999786e+00 7.513294786200000464e-02 2.232820287092999845e+00 2.241822532302999882e+00 3.972479155088000091e+00 1.972087454808000073e+00 5.903256787346999879e+00 4.014250419026000216e+00 1.674104863751999961e+00 1.814957293706999986e+00 3.899413249900000183e-02 5.865331399439000393e+00 5.840539530140000046e+00 9.997254680999999310e-02 5.557340832221999705e+00 1.997143502239000057e+00 3.881350974457999925e+00 5.877089992511000283e+00 5.994896122179000031e+00 3.893643329957999999e+00 6.093462068751000160e+00 2.128937064206999796e+00 2.175324150114999799e+00 6.772513379500000319e-02 5.598795055930000153e+00 1.807463686039000095e+00 7.865959519881999817e+00 1.800644400331999906e+00 6.084768075360999617e+00 2.873272975300000115e-02 5.975966345554000192e+00 6.233906010490000149e+00 1.003906691160000031e-01 1.675118227537000015e+00 2.007763609742999833e+00 3.963123014368000074e+00 6.100429033659000133e+00 2.073158216048000213e+00 3.830302261383999873e+00 2.142641707009000029e+00 5.895201950136000235e+00 3.980043152362000125e+00 5.742810524193999733e+00 5.804097328256999866e+00 4.001708348778000079e+00
1.469597887899999900e-01 7.956478327600000067e-02 7.910288708930999668e+00 3.924127720310000011e+00 7.747582787885000322e+00 7.305192456499999543e-02 7.695431124883000074e+00 4.003904922091000351e+00 7.819980684164000273e+00 3.985437639819000122e+00 3.660568530609999982e+00 2.205748401000000129e-03 9.615308713900000415e-02 1.141386905790000017e-01 3.903129365512000071e+00 3.895731127987999809e+00 7.792803869836999908e+00 4.034593490777999669e+00 7.767659137535000369e+00 3.957094219162999860e+00 3.985635448831999827e+00 3.961772730462000069e+00 4.059380663079999785e+00 3.845284063303000099e+00 1.959006537617000054e+00 2.014572987454000152e+00 1.987467528025999908e+00 5.931668352186999726e+00 2.010155792064999947e+00 1.974463061420000054e+00 1.920965391146999934e+00 5.942103989017000210e+00 2.007133511006999882e+00 5.983252701039999621e+00 6.014539318260999856e+00 1.968225511965000063e+00 1.948471608958999957e+00 1.962930743580999948e+00 5.919186575848000231e+00 5.955792971633999677e+00 1.896429876695000072e+00 5.967510328311999679e+00 1.838080888859999984e+00 5.800197249676999789e+00 5.871491058220000170e+00 5.851616040234000060e+00 5.786043762201999563e+00 5.965797244708999969e+00 7.865630121529999741e+00 1.991634630122000038e+00 1.748010837940999984e+00 3.862869919247999828e+00 1.714256905455000091e+00 2.147426599031000194e+00 7.863406263967999799e+00 5.522661607402000072e+00 2.300781977760999908e+00 4.027211476431999948e+00 5.973899858288000075e+00 2.020032543955000204e+00 8.964657471799999944e-02 1.923493084014000098e+00 6.347700564104999721e+00 3.945804098199999999e+00 2.019034268059999970e+00 5.866233449130000110e+00 7.836142849705000302e+00 6.035426389876000108e+00 5.756735325943999726e+00 4.040382556942000214e+00 5.842679341350000222e+00 6.146617122121000421e+00 1.790361592093000054e+00 4.050934905999999808e-03 1.944433187732999890e+00 6.075064402215000214e+00 7.833440038218999923e+00 2.224541813877999985e+00 2.233354708745999950e+00 3.875942489469000218e+00 1.926641850605000039e+00 5.903745223578000356e+00 3.962934288989000020e+00 1.687856419749999892e+00 1.920064642455999948e+00 7.850863998466000027e+00 5.824296406879000187e+00 5.903507695941000222e+00 7.971993540499999753e-02 5.521855917647999767e+00 1.977432119643000030e+00 4.022001235242999684e+00 5.838690870667999633e+00 5.986249078738000051e+00 3.950330832509000079e+00 6.123441398663000079e+00 2.089892292901000204e+00 2.133410995090000206e+00 9.573987915800000192e-02 5.654051785959000043e+00 1.830892563496000047e+00 7.795855088119999721e+00 1.781927616806000092e+00 6.057692663695999791e+00 5.114957594999999801e-02 5.989641689848999917e+00 6.224285095156999681e+00 1.625405843090000080e-01 1.667607765577000078e+00 2.097642996382000025e+00 3.947950555669999861e+00 6.160624473672999812e+00 2.089052946266999999e+00 3.880943477294000132e+00 2.102923503967999874e+00 5.951205325633999621e+00 3.944358353045999799e+00 5.773291022175000009e+00 5.890835506202000360e+00 4.029536511059999881e+00