-2.978483991320000132e+04
-2.978312744749999911e+04
-2.978247840709999946e+04
-2.978260751209999944e+04
-2.978237738149999859e+04
-2.978187330629999997e+04
-2.978257542269999976e+04
-2.978225102519999928e+04
-2.978190052700000160e+04
-2.978157641119999971e+04
-2.978232372129999931e+04
-2.978200416889999906e+04
-2.978196237770000153e+04
-2.978093655460000082e+04
-2.978094549040000129e+04
-2.978057287070000166e+04
-2.977947922430000108e+04
-2.977935497039999973e+04
-2.977943308170000091e+04
-2.977911869229999866e+04
-2.977798067090000040e+04
-2.977732285459999912e+04
-2.977718305279999913e+04
-2.977733823470000061e+04
-2.977661826179999844e+04
-2.977695798909999939e+04
-2.977855630960000053e+04
-2.977899286999999822e+04
-2.977763352229999873e+04
-2.977732236209999974e+04
-2.977674067129999821e+04
-2.977771708500000022e+04
-2.977849238239999977e+04
-2.977855784420000055e+04
-2.977842183680000016e+04
-2.977847097650000069e+04
-2.977962466850000055e+04
-2.978040845809999882e+04
-2.978012868520000120e+04
-2.978052204419999907e+04
-2.978119753520000086e+04
-2.978148201509999853e+04
-2.978196007770000142e+04
-2.978218740070000058e+04
-2.978185684879999826e+04
-2.978178534289999880e+04
-2.978234423679999963e+04
-2.978275495650000084e+04
-2.978228952750000099e+04
-2.978244376140000168e+04
-2.978247434159999830e+04
-2.978222451490000094e+04
-2.978214199340000050e+04
-2.978246221860000151e+04
-2.978246859200000108e+04
-2.978238413270000092e+04
-2.978237317420000181e+04
-2.978202293210000062e+04
-2.978213872959999935e+04
-2.978205423399999927e+04
-2.978196475819999978e+04
-2.978122089380000034e+04
-2.978094888300000093e+04
-2.978132689929999833e+04
-2.978118786660000114e+04
-2.978041920119999850e+04
-2.978029710210000121e+04
-2.978044824720000179e+04
-2.977992542450000110e+04
-2.978059837379999954e+04
-2.977974225809999916e+04
-2.977968235629999981e+04
-2.977866648200000054e+04
-2.977836109779999970e+04
-2.977690310719999979e+04
-2.977648332870000013e+04
-2.977652683990000151e+04
-2.977763429499999984e+04
-2.977801742640000157e+04
-2.977703411399999823e+04
-2.977735530289999951e+04
-2.977798433120000118e+04
-2.977826472429999922e+04
-2.977795435559999896e+04
-2.977818160070000158e+04
-2.977831517170000006e+04
-2.977904752359999839e+04
-2.977902209059999950e+04
-2.977951658010000028e+04
-2.978098699699999997e+04
-2.978170854479999980e+04
-2.978065506860000096e+04
-2.978054136350000044e+04
-2.978116563920000044e+04
-2.978193096290000176e+04
-2.978152900320000117e+04
-2.978220624930000122e+04
-2.978243198040000061e+04
-2.978162468720000106e+04
-2.978189204660000178e+04
-2.978235854359999939e+04
-2.978236565580000024e+04
-2.978224198859999888e+04
-2.978267676460000075e+04
-2.978240373570000156e+04
-2.978249691259999963e+04
-2.978227740970000013e+04
-2.978214114590000099e+04
-2.978218712099999902e+04
-2.978222514479999882e+04
-2.978206440160000056e+04
-2.978189114830000108e+04
-2.978144966679999925e+04
-2.978113630869999906e+04
-2.978173065090000091e+04
-2.978195644579999862e+04
-2.978159246649999841e+04
-2.978111189279999962e+04
-2.978080312570000024e+04
-2.978047834449999937e+04
-2.978040792169999986e+04
-2.977926627720000033e+04
-2.977913679380000031e+04
-2.977920306880000135e+04
-2.977841176220000125e+04
-2.977810450969999874e+04
-2.977832364230000167e+04
-2.977822264550000182e+04
-2.977762241649999851e+04
-2.977839642989999993e+04
-2.977850439429999824e+04
-2.977831767290000062e+04
-2.977824128619999829e+04
-2.977902063510000153e+04
-2.977858489009999903e+04
-2.977810368649999873e+04
-2.977863593789999868e+04
-2.977935267010000098e+04
-2.977896894270000121e+04
-2.977925003060000017e+04
-2.978034675259999858e+04
-2.978091945889999988e+04
-2.978074362779999865e+04
-2.978117999449999843e+04
-2.978119648969999980e+04
-2.978180554779999875e+04
-2.978124513579999984e+04
-2.978202514840000003e+04
-2.978160508739999932e+04
-2.978204046450000169e+04
-2.978171199100000013e+04
-2.978215052680000008e+04
-2.978222582559999864e+04
-2.978236226030000034e+04
-2.978241074930000104e+04
-2.978229012159999911e+04
-2.978181451640000159e+04
-2.978228067870000086e+04
-2.978219117149999875e+04
-2.978205459669999982e+04
-2.978206123669999943e+04
-2.978209175490000052e+04
-2.978180914720000146e+04
-2.978213074829999823e+04
-2.978207713729999887e+04
-2.978127824719999990e+04
-2.978080983320000087e+04
-2.978079066850000163e+04
-2.978028755729999830e+04
-2.978092984559999968e+04
-2.978127762200000143e+04
-2.977974597480000011e+04
-2.977913194989999829e+04
-2.977963739419999911e+04
-2.977908171239999865e+04
-2.977947934940000050e+04
-2.977896960459999900e+04
-2.977858649829999922e+04
-2.977804767179999908e+04
-2.977832989779999843e+04
-2.977834142390000125e+04
-2.977726531030000115e+04
-2.977690597580000031e+04
-2.977705964659999881e+04
-2.977882108180000068e+04
-2.977923181090000071e+04
-2.977806629869999961e+04
-2.977824538630000097e+04
-2.977973724840000068e+04
-2.977997134530000039e+04
-2.977965877339999861e+04
-2.977990178359999845e+04
-2.978010146679999889e+04
-2.978051877279999826e+04
-2.978027143589999832e+04
-2.978077530760000082e+04
-2.978121465360000002e+04
-2.978150581579999925e+04
-2.978151154089999909e+04
-2.978167432209999970e+04
-2.978174488869999914e+04
-2.978241282389999833e+04
-2.978196881099999882e+04
-2.978211716529999831e+04
-2.978222601669999858e+04
-2.978237476740000056e+04
-2.978171871359999932e+04
-2.978210446170000068e+04
-2.978265680399999837e+04
-2.978254513919999954e+04
-2.978214370090000011e+04
-2.978221229279999898e+04
-2.978189832590000151e+04
-2.978188689979999981e+04
-2.978177736960000038e+04
-2.978183284600000115e+04
-2.978201030439999886e+04
-2.978164459200000056e+04
-2.978096802749999915e+04
-2.978130557469999985e+04
-2.978135552699999971e+04
-2.978053817709999930e+04
-2.978036251030000130e+04
-2.978060967399999936e+04
-2.978041456509999989e+04
-2.978007977490000121e+04
-2.977914987430000110e+04
-2.977912746419999894e+04
-2.977937412960000074e+04
-2.977924321440000131e+04
-2.977840014480000173e+04
-2.977746358390000023e+04
-2.977788317019999886e+04
-2.977850899209999989e+04
-2.977880622560000120e+04
-2.977836260680000123e+04
-2.977953735980000056e+04
-2.977943122909999875e+04
-2.977885654459999932e+04
-2.977883112800000163e+04
-2.977945036310000069e+04
-2.977951012149999951e+04
-2.977955521660000159e+04
-2.978073014849999890e+04
-2.978021667030000026e+04
-2.978069306219999999e+04
-2.978097226900000169e+04
-2.978183979330000147e+04
-2.978173572259999855e+04
-2.978174373080000078e+04
-2.978188289520000035e+04
-2.978184080879999965e+04
-2.978166350669999883e+04
-2.978153271909999967e+04
-2.978185432579999906e+04
-2.978210261729999911e+04
-2.978219847099999970e+04
-2.978228376070000013e+04
-2.978198810930000036e+04
-2.978197699220000140e+04
-2.978246416609999869e+04
-2.978237848410000151e+04
-2.978209921179999947e+04
-2.978235439129999941e+04
-2.978274130030000015e+04
-2.978248005209999974e+04
-2.978230203550000078e+04
-2.978200483679999888e+04
-2.978094106749999992e+04
-2.978032470370000010e+04
-2.978065940889999911e+04
-2.978115522979999878e+04
-2.978107364539999980e+04
-2.978074428389999957e+04
-2.978120550609999918e+04
-2.978163150300000052e+04
-2.978022439820000000e+04
-2.977981718439999895e+04
-2.978046268979999877e+04
-2.977958163630000126e+04
-2.977823639679999906e+04
-2.977826922370000102e+04
