-2.379777729700000011e-02 3.081474245199999906e-02 -6.137972016999999891e-02 1.017338638699999930e-02 -3.217268500300000250e-02 -1.006629741439999948e-01 1.928375285349999968e-01 -1.090145020300000052e-02 4.232644924000000114e-02 -1.630860943190000079e-01 9.459089545700000157e-02 -1.054081127100000084e-02 -1.179144697630000044e-01 -9.119080145400000614e-02 5.104698009599999836e-02 1.392194695520000136e-01 -6.481105946600000667e-02 6.120297168799999910e-02 8.274858014699999764e-02 4.526033486400000277e-02 -8.117159060100000156e-02 -3.754806715700000075e-02 4.944377854499999725e-02 7.207032735700000248e-02 -1.942954962229999916e-01 2.032878073849999911e-01 -1.776513872920000014e-01 1.197670627870000004e-01 -2.029458533519999941e-01 -1.344614265200000103e-01 1.059697054559999990e-01 -2.847029156770000125e-01 -2.939558067799999952e-01 -1.494109907080000132e-01 2.206637847340000014e-01 2.617687334029999979e-01 2.059726417390000119e-01 7.977450819499999624e-02 1.762139909229999968e-01 -1.812903234229999994e-01 -3.121003997680000253e-01 1.287993385940000013e-01 1.488559581999999992e-01 -4.391909299700000324e-02 3.360459931820000135e-01 -1.314245764159999996e-01 2.942614856799999901e-01 -2.868437346089999784e-01 -2.684292974610000271e-01 -5.136310176799999822e-02 -4.704450796799999890e-02 3.658977532809999933e-01 6.561338299100000215e-02 2.605437361000000063e-02 1.392375726120000101e-01 5.539070349300000140e-02 7.704289488200000147e-02 -2.637661325330000195e-01 7.609616221999999583e-03 1.015901147010000033e-01 -1.705551493199999880e-02 6.173439425399999958e-02 1.251779513699999985e-02 -3.605291823630000225e-01 -9.779352555999999697e-02 -7.210137682900000233e-02 1.795903797879999930e-01 -1.184456569799999942e-01 7.086274547699999982e-02 -3.796465873420000192e-01 -7.557772148499999898e-02 2.112066589999999928e-04 -7.285294658799999767e-02 -2.443478719259999932e-01 5.336826939900000261e-02 6.181542162000000160e-03 3.911819722039999725e-01 -1.102180555610000057e-01 2.642817291700000001e-02 7.566336536399999313e-02 9.093312377499999932e-02 7.897124782000000676e-02 -5.759250405579999788e-01 9.944076823299999313e-02 -4.137128560199999916e-02 3.915787265619999902e-01 -7.856984693799999586e-02 1.158219821509999942e-01 2.064159860310000039e-01 1.551872788870000131e-01 4.806435227800000265e-02 -7.209952496999999516e-02 -1.645946137250000052e-01 2.746142663289999897e-01 -1.427246847289999898e-01 -1.502428349530000040e-01 -8.146466340199999545e-02 9.354648830999999845e-03 -4.107077263469999795e-01 6.381275850100000258e-02 1.261735510100000027e-02 3.276414810689999846e-01 -5.031464404299999804e-02 1.367115685680000137e-01 1.840045892790000137e-01 9.779267044700000466e-02 1.071157744429999947e-01 -2.862763856999999898e-02 4.204650916000000210e-02 -7.852583502700000162e-02 3.993729404479999801e-01 5.510829387400000001e-02 2.294175253390000058e-01 -4.851169910300000276e-02 5.858805467000000218e-03 -6.772027091399999976e-02 -1.128260395420000034e-01 2.922740998399999887e-02 -2.012348648800000028e-01 -3.575905751169999869e-01
-5.060528484000000049e-02 2.288151460900000045e-01 -3.598515950130000141e-01 1.409399223499999999e-02 -1.306429992629999925e-01 -5.217433005820000247e-01 1.037110467478999931e+00 -1.221898263689999986e-01 1.835345246850000056e-01 -1.118290937148999964e+00 4.793914151240000199e-01 1.104419976499999984e-01 -4.977593010760000269e-01 -4.490966464519999812e-01 2.813046033200000129e-01 6.172452841269999713e-01 -2.337460904370000092e-01 2.763961050120000151e-01 5.238912068109999876e-01 1.646148692330000052e-01 -3.641612549280000000e-01 -2.276480282979999881e-01 1.928653194290000095e-01 3.732699821039999755e-01 -1.327875638677000092e+00 9.470817227760000012e-01 -6.451739358010000203e-01 5.786907766590000390e-01 -9.245961721009999801e-01 -7.578415628689999517e-01 5.414935144560000246e-01 -1.438880708916000062e+00 -1.324050879809999914e+00 -6.717583391400000492e-01 2.064108014643000200e+00 1.234749871490000039e+00 9.322494489189999678e-01 5.299254961889999782e-01 6.154051888520000180e-01 -7.939573712520000548e-01 -1.544465067376999956e+00 5.545223161619999841e-01 4.539792853130000250e-01 -2.197608904739999924e-01 1.750606315906999999e+00 -5.821892490069999759e-01 1.235814074956999908e+00 -1.426819460114000071e+00 -7.326681525489999736e-01 -3.322348027890000277e-01 -2.561397285329999884e-01 1.524852895965000066e+00 2.613801237330000138e-01 1.043373731699999973e-01 2.034779286299999990e-01 1.110498235190000016e-01 4.336172727600000054e-01 -9.102070021439999659e-01 5.467226359999999979e-02 5.399755287299999873e-01 -3.984510097660000083e-01 2.813606877390000260e-01 1.094107799039999995e-01 -1.404938391308999890e+00 -5.242748605820000130e-01 -3.617936796660000121e-01 6.458895812980000040e-01 -4.166004835739999801e-01 3.862993346899999958e-01 -1.441983569975000101e+00 -4.512152233969999870e-01 2.369507442999999828e-03 -4.771466724749999777e-01 -9.631027402449999775e-01 3.215832827990000031e-01 8.879895475900000112e-02 1.198804318652999967e+00 -5.891347967150000198e-01 2.472643579630000032e-01 -3.868848254400000103e-02 4.444944880739999937e-01 4.724195292519999811e-01 -2.945598690851999990e+00 5.561953837909999754e-01 -2.004344435350000064e-01 1.516041395700999939e+00 -4.052225798769999998e-01 4.925938808829999904e-01 7.694181130149999603e-01 8.010877245319999451e-01 1.820620109349999904e-01 -4.142332531199999918e-02 -8.299283710260000335e-01 1.577568250549999940e+00 -1.500502352030000097e-01 -9.769755420679999691e-01 -4.433345370510000105e-01 1.946105012109999866e-01 -1.429237467339999901e+00 3.984646153379999833e-01 9.149792726500000084e-02 1.122035198377999921e+00 -2.624751294450000105e-01 8.142703254440000205e-01 7.505112923009999992e-01 4.792306291610000102e-01 5.408475144440000326e-01 -3.514057867779999955e-01 2.205423394050000097e-01 -4.096463048899999793e-01 1.295532148811999962e+00 2.365407214309999950e-01 1.100153494221999928e+00 4.209849773620000235e-01 7.778480909000000214e-03 -3.272700297900000277e-01 -4.852993431889999765e-01 6.548490521399999431e-02 -1.113238966416999931e+00 -1.583885913620999952e+00
6.867310270699999997e-02 5.266037230579999617e-01 -6.706372763319999875e-01 -1.465419917580000064e-01 7.379894808100000148e-02 -8.386510072739999933e-01 1.424702912407000088e+00 -4.122001874499999774e-01 1.867644802569999873e-01 -1.734149863302999917e+00 6.151073648129999905e-01 2.618904450740000001e-01 -3.334994421979999846e-01 -5.701884543240000047e-01 5.266956755760000553e-01 5.065754597380000002e-01 -7.530243361199999430e-02 2.558991184100000149e-01 7.772715760509999461e-01 1.601552842999999851e-02 -3.998639910310000101e-01 -3.237326789980000119e-01 2.620444260400000072e-02 5.666903485659999795e-01 -1.379414028140999893e+00 8.134785531020000127e-01 -5.255177073160000045e-01 3.344091867010000052e-01 5.946220215180000324e-01 -1.193986166386000081e+00 5.911334772390000047e-01 -1.733645505883000038e+00 -1.149209900365999903e+00 -8.092960007489999885e-01 1.030290669782000013e+00 1.583441019748000000e+00 8.090769859559999722e-01 5.216552436739999576e-01 8.843848953109999522e-01 -5.940356625229999965e-01 -1.739862833214000037e+00 5.215943396390000375e-01 3.451251304919999985e-01 -9.356907165999999582e-03 1.816961406798000001e+00 -6.393665274659999787e-01 1.265787916227000043e+00 -1.979075333788000046e+00 7.246310169130000256e-01 -7.234848128449999916e-01 -3.501178063659999840e-01 -1.743749491619999981e-01 -2.614637981699999975e-02 -6.927753511799999986e-02 -7.656870754510000099e-01 -1.181978885929999973e-01 5.998422560959999483e-01 1.412005957019999980e-01 -1.930283962609999904e-01 6.748484060639999838e-01 -1.055370314117999975e+00 4.149177874930000121e-01 3.379455977029999780e-01 -6.079859559150000425e-01 -6.129526121239999847e-01 -2.543523417060000180e-01 3.170014770000000146e-04 -2.342333662220000001e-01 5.378635703980000349e-01 -5.521613530429999583e-01 -6.112682231880000039e-01 1.812128752999999899e-03 -5.934820748810000213e-01 -3.523093241000000049e-03 3.147177990050000207e-01 5.838906537099999849e-02 -9.662586989439999607e-01 -6.949465376600000299e-01 4.877751537760000033e-01 -9.175398531549999737e-01 4.234909680810000077e-01 6.825748220239999942e-01 -4.028378809579999942e-01 4.904286171450000231e-01 -3.703135635470000131e-01 6.757348947879999734e-01 -5.885093470969999796e-01 3.467214318119999916e-01 -1.343310938939999977e-01 8.855339570389999526e-01 2.997289972259999935e-01 8.650756590000000523e-01 -9.191149534750000516e-01 2.136806834975999880e+00 5.623671192329999791e-01 -1.288166753522999919e+00 -4.993069192530000255e-01 5.620054192169999796e-01 -2.030512601670000083e-01 3.450374374290000046e-01 5.982121623500000207e-02 4.555916291179999966e-01 -3.424948278880000085e-01 1.095679400485999988e+00 5.097771659159999746e-01 3.328916559530000208e-01 6.741908774020000106e-01 -4.506650771849999848e-01 3.093833611960000174e-01 -5.141743207240000446e-01 -3.158734744680000150e-01 3.278317364230000086e-01 1.149564281983999958e+00 1.372710301988000037e+00 -3.964793081899999766e-02 -4.523788766369999936e-01 1.101361837620000034e-01 -8.939578235799999772e-02 -1.092009248872999994e+00 -1.428003841188000056e+00
9.479469710099999724e-02 6.300537156150000095e-01 -7.783782341739999833e-01 -2.750993014449999996e-01 3.648863243270000223e-01 -9.787500238649999851e-01 1.250940782480999935e+00 -5.041674531040000184e-01 -1.825230860400000113e-02 -1.412382716088000034e+00 7.865571056390000537e-01 -1.412447263930000085e-01 1.996519144829999870e-01 -6.723842012009999536e-01 6.790674672340000217e-01 -6.709551517700000633e-02 1.256854848460000063e-01 -7.801790351600000617e-02 8.875888663569999615e-01 -9.200067889000000665e-02 -1.467033675399999904e-01 -3.929962925609999935e-01 -2.840526901379999969e-01 7.553615068490000528e-01 -1.099926981774000057e+00 -1.478344563160000069e-01 1.294434551850000004e-01 -9.006961641800000085e-02 2.280753161597000034e+00 -6.217822701940000085e-01 -4.054458025399999832e-02 -9.704346987220000553e-01 3.853602873620000091e-01 -2.753282845150000213e-01 -2.526183998870000225e-01 8.845644908440000176e-01 -3.594242025659999951e-01 3.145776232720000065e-01 7.806790325500000405e-01 3.687353176579999947e-01 -5.725933655249999532e-01 4.256858750200000208e-02 -1.493733144409999936e-01 1.157131278859999945e-01 4.939412256769999954e-01 4.601359938800000243e-02 3.939675257099999883e-01 -1.151715832350999946e+00 1.261451915622000097e+00 -1.045001766246999919e+00 -2.317973988429999910e-01 -1.349042074308999917e+00 -5.642152396830000249e-01 -3.476805018720000029e-01 -6.053463052909999753e-01 -5.359005157480000170e-01 6.036064918719999950e-01 6.305414033639999971e-01 -6.392894446260000141e-01 5.575611250049999912e-01 -6.398979512579999751e-01 4.542540290529999969e-01 5.733696840719999521e-01 9.831167011160000246e-01 -2.883933707199999863e-01 2.443043743370000020e-01 -5.648676265869999602e-01 2.350630914509999891e-01 4.188215465860000153e-01 6.636882156440000458e-01 -4.373843394290000131e-01 2.583179815100000026e-02 -4.061291986889999928e-01 4.515308659769999844e-01 -8.202411937499999584e-02 -8.065420016999999553e-02 -1.851549552265999932e+00 -2.526490689070000073e-01 5.318427211430000190e-01 -8.597159557150000353e-01 -5.325197506800000147e-02 7.083199101070000170e-01 1.876808109826000104e+00 -6.693729425000000295e-03 -4.187281274390000085e-01 -3.317800695070000083e-01 -5.171927171589999483e-01 -1.269622624819999879e-01 -1.363969002047999979e+00 3.816279204740000153e-01 3.969235907209999747e-01 1.221245592310999939e+00 -5.500575626320000078e-01 1.320503829123000017e+00 6.221577096860000378e-01 -6.017413851039999928e-01 -3.440133817220000223e-01 9.147522556960000495e-01 6.822489450399999988e-01 -1.900697139100000072e-02 1.038306256250000059e-01 -3.958127760599999823e-02 -2.548495919639999774e-01 8.422896995190000125e-01 -1.451091446710000010e-01 -2.975879728720000061e-01 4.484995881270000262e-01 -4.963957065210000130e-01 1.219873935559999956e-01 -3.184561774710000237e-01 -1.341363567526999923e+00 2.801331809490000269e-01 2.677645458690000035e-01 2.346307266290000026e-01 -1.645985980199999865e-01 -4.841897863060000140e-01 8.137853055699999505e-01 -3.123089713800000222e-01 -2.344590184829999924e-01 -1.063911495919999950e-01
-1.126307504749999994e-01 3.731283082619999969e-01 -5.459961365850000137e-01 -1.841256171729999946e-01 4.111939592800000209e-01 -8.763255996490000310e-01 7.913996757829999673e-01 -1.186204464339999931e-01 -3.283431165330000234e-01 -7.423250933630000103e-01 1.128784107346999965e+00 -6.002734681610000234e-01 6.286424366459999469e-01 -9.568710966540000529e-01 6.055518176049999868e-01 -6.620427943879999555e-01 1.264996146300000068e-01 -5.461690668290000161e-01 1.090534722462999984e+00 2.269595656810000084e-01 2.161427142700000081e-01 -5.420052574070000073e-01 -5.921413788949999590e-01 9.580490829910000006e-01 -1.232628790776999939e+00 -1.783645247781999954e+00 1.093550198708999943e+00 -2.723609620469999992e-01 1.452652749590999992e+00 -1.335302368060000133e-01 -6.551016207790000268e-01 3.034706139189999874e-01 2.629784835000000154e+00 6.571658991250000081e-01 -1.776709237880000070e-01 -1.106349552916999990e+00 -1.120109960263999893e+00 1.002585658989999934e-01 -1.666411238470000000e-01 8.752234437289999613e-01 7.107429427629999852e-01 -3.286660352729999790e-01 -8.045322097910000414e-01 5.984314012689999629e-01 -9.404643179399999608e-01 1.071794401106999972e+00 -1.037460101947000002e+00 4.290573152120000233e-01 -7.316686860399999881e-02 -1.124871339538999981e+00 9.332208090000000331e-04 2.500930331399999970e-02 -7.769704968520000365e-01 -4.346193251789999823e-01 7.725682118829999556e-01 -9.298561423569999818e-01 3.262343529139999920e-01 -5.539889254859999834e-01 -8.760526708560000264e-01 2.622793646079999985e-01 8.706132248810000140e-01 1.666224044930000037e-01 6.124899288489999982e-01 1.271001917251999958e+00 1.109013180200000004e-01 6.852125101549999542e-01 -1.014862962839999938e-01 6.040385767749999468e-01 3.470820919700000340e-02 7.531062692859999963e-01 -8.240913631099999748e-02 9.006737098099999728e-02 -5.479321622700000088e-02 -4.769023748110000072e-01 -5.424201810680000513e-01 -1.752839195960000096e-01 1.359908084908999948e+00 1.733709010770000114e-01 2.510095891560000236e-01 9.619156069109999763e-01 -6.009976875110000227e-01 5.059865991640000171e-01 6.099985650679999871e-01 -5.485135210660000427e-01 -2.554548397740000198e-01 -6.166804985100000219e-02 -2.827946438350000258e-01 -3.551565456319999980e-01 -3.562236798160000051e-01 -3.937015742300000176e-01 4.941855814669999791e-01 -3.959593669740000266e-01 -4.993546231499999821e-02 -7.490851527500000384e-02 -3.294617257949999933e-01 3.490109432749999852e-01 -1.652639628769999869e-01 8.877983019590000024e-01 -2.948804456779999805e-01 -2.800749881829999732e-01 2.476751333509999986e-01 -5.321624377599999678e-02 -8.675733292800000274e-02 2.916318390400000071e-01 -8.939035855169999989e-01 -8.126407510319999528e-01 2.025757529700000087e-02 -2.173865156120000086e-01 -7.419400016499999584e-02 4.596460159500000142e-02 1.207277037399999975e-01 -5.104099641200000176e-02 -9.480517806789999780e-01 -1.438625632576000068e+00 -2.076082799089999931e-01 -2.787429520019999996e-01 6.074831731580000449e-01 -4.085587804090000108e-01 5.647450752829999976e-01 2.129099830352000122e+00
-3.188030215250000077e-01 9.189895220299999778e-02 -3.295715733890000054e-01 -7.887818762400000683e-02 2.780931223070000069e-01 -7.383865238290000521e-01 6.434587602710000187e-01 2.750023124429999966e-01 -5.402512431479999933e-01 -4.855051079980000073e-01 1.405156216383999901e+00 -8.411987611179999602e-01 5.496267756579999997e-01 -1.224749058205000019e+00 5.265920141630000550e-01 -7.962732658079999526e-01 9.903273371000000103e-02 -7.224492857750000052e-01 1.270579469685999996e+00 7.071138067909999991e-01 4.924136269509999941e-01 -6.859602828599999924e-01 -9.767322026220000009e-01 1.148621792289999943e+00 -8.843675215120000432e-01 -2.363655799532999868e+00 1.259137654202000078e+00 -5.412531606599999545e-01 4.932396673610000004e-01 1.285060882350000100e-01 -8.582817509479999663e-01 7.921265953339999832e-01 2.455537331474999974e+00 1.048815496867999908e+00 4.015665814680000056e-01 -1.439916692918000063e+00 -5.751032221040000003e-01 7.777177464499999970e-02 -5.986564904209999982e-01 6.589630843110000358e-01 1.174528828456999907e+00 -6.077856769480000088e-01 -8.844999862829999726e-01 1.283606094860000102e+00 -9.873150349820000171e-01 1.265871049472000021e+00 -2.316152561656999787e+00 9.397732080759999551e-01 -7.607209567720000232e-01 -5.904310576560000134e-01 1.648473730739999921e-01 6.767984207520000295e-01 -5.148219622809999674e-01 -3.750320518899999955e-01 9.827688295819999587e-01 -9.323204990079999588e-01 7.816808086099999442e-02 -8.514806384890000190e-01 -6.970118103239999474e-01 3.402084757900000062e-02 1.873128127633000073e+00 -2.976291045750000253e-01 3.467713506369999865e-01 1.089075353800000034e-01 2.929525003960000151e-01 8.296385646239999856e-01 7.211975957199999732e-01 6.451150802320000377e-01 -3.002210103349999826e-01 2.161520298000000131e-02 1.737653238040000048e-01 1.383414689580000079e-01 3.393867476479999756e-01 -8.088623294979999656e-01 -6.697459169370000298e-01 -2.123382569689999944e-01 2.081224522923999842e+00 3.705465431709999979e-01 -1.295880291239999982e-01 1.349084215333999914e+00 -7.585557934640000388e-01 2.497943478000000106e-01 -7.093549665520000325e-01 -7.134916742360000175e-01 7.719157596299999757e-02 3.713028477620000101e-01 -1.186553972809999968e-01 -1.254427131309999999e-01 1.953012662504999941e+00 -9.435713476149999446e-01 3.526727885700000065e-01 -2.006403388953000189e+00 2.436893098069999875e-01 -9.801049347639999576e-01 -1.192382727792999919e+00 8.722826754529999782e-01 -1.246575507099999952e-01 4.137742871749999773e-01 -8.148286187059999852e-01 -2.188146190509999978e-01 4.078620718709999871e-01 -4.432929801989999863e-01 8.707529566600000215e-02 -4.328503633300000153e-02 -1.213149461320000011e-01 -7.877796227119999717e-01 -3.704933763789999834e-01 1.121310116080999952e+00 -9.676091044999999766e-03 4.872589248890000224e-01 1.060869612425000108e+00 -1.814574696540000032e-01 -1.591598009751000076e+00 -1.479343085650999923e+00 -2.394639118620000007e-01 2.215913091720000117e-01 -3.697995761319999852e-01 -1.974008023549999880e-01 1.159803459094999933e+00 1.702316023040999937e+00
-3.960022868840000210e-01 1.710292214499999908e-01 -3.612519245249999900e-01 -1.031462602599999973e-01 2.506951203100000192e-01 -6.221416912449999614e-01 1.067964364582999925e+00 1.422826411420000103e-01 -4.353162351839999777e-01 -6.846086039830000525e-01 1.470537706165000014e+00 -9.220696186750000356e-01 1.076737137279999978e-01 -1.164161819639000006e+00 5.519773673510000034e-01 -4.873562195839999944e-01 2.807012971100000254e-01 -5.921541620679999784e-01 1.244608643072000032e+00 7.094143208099999987e-01 5.696850197339999866e-01 -8.444940104529999880e-01 -1.332504411871000105e+00 1.137913206342999972e+00 1.904161800470000054e-01 -1.092758435182999976e+00 2.518684154790000185e-01 -9.376634529289999964e-01 -1.562401256519999893e-01 1.100192180479999948e-01 -5.583982323039999862e-01 3.831373826889999945e-01 5.363842457790000129e-01 5.945235675140000398e-01 6.878864376509999934e-01 -5.247235846879999555e-01 -1.550846744100000119e-01 9.044039642860000061e-01 1.417632421949999999e-01 6.719728804619999885e-01 1.143982176626000102e+00 -3.408250254369999954e-01 -1.200126158629999940e-01 2.144116533750000109e-01 2.787213979979999978e-01 4.589696198459999876e-01 -1.532965022781000108e+00 9.235624610420000158e-01 1.791958885099999982e-02 1.896812382380000106e-01 2.057162668120000037e-01 -4.220172899510000186e-01 2.702416133000000095e-02 -2.826450608589999858e-01 -5.038115174859999490e-01 -4.112944536279999896e-01 1.233042589190000010e-01 6.839930911920000245e-01 -1.481040817260000086e-01 4.705971256699999911e-02 9.956260015590000512e-01 -5.585327758379999841e-01 -2.872916435910000121e-01 -4.452899259079999839e-01 3.108419778090000252e-01 5.348293756640000174e-01 3.911101460040000144e-01 3.249358635619999935e-01 -3.095418106230000133e-01 -8.206891367900000234e-02 2.733805416289999957e-01 1.055883780249999987e-01 5.491247400340000251e-01 2.500956573409999772e-01 -2.271182589340000058e-01 -7.324649404499999905e-02 -6.241257366910000215e-01 2.769940503669999776e-01 -5.122759804980000498e-01 -1.025711138736000061e+00 -5.645585863659999815e-01 9.224810729999999639e-03 -3.178440152800000168e-02 -7.567853332399999966e-02 3.817527445730000135e-01 -6.833565544170000505e-01 -4.937642898899999994e-02 2.373011473240000113e-01 8.476934796770000391e-01 -7.612376770330000486e-01 -1.686719244600000042e-02 -1.798282176029999957e-01 8.581921665300000501e-02 -1.115588470885999994e+00 -5.511807900999999843e-01 7.112689628920000340e-01 -2.389886259700000071e-01 -3.514828434030000115e-01 5.573389083859999760e-01 1.186971262760000007e-01 4.096886614449999908e-01 -1.038880873527999960e+00 1.463574237099999897e-01 -3.473382299250000194e-01 6.953493093429999883e-01 -3.430705456120000107e-01 -5.418656926689999764e-01 1.723812073948000068e+00 1.195930116399999965e-01 7.265112684419999800e-01 -5.958479726600000165e-02 1.820041464700000028e-02 -9.761742265310000555e-01 -1.845715154829999927e-01 -2.691339775780000054e-01 6.408828027980000286e-01 -1.064051179251999990e+00 3.040960749370000271e-01 1.350191384034999942e+00 -8.659564804749999567e-01
-4.307694379299999987e-01 3.739746878149999842e-01 -3.901737724630000015e-01 -1.972679195929999962e-01 3.223210831280000077e-01 -4.031531872899999924e-01 1.629801088940999954e+00 -2.617941979360000060e-01 1.993109698240000116e-01 -9.093217262789999866e-01 1.430512983410000105e+00 -7.261784060229999893e-01 -2.939174041579999952e-01 -9.336266442389999920e-01 5.245333720789999710e-01 -1.166820631060000030e-01 4.491956080789999972e-01 -4.514308493629999863e-01 1.053521911762999919e+00 3.414955678080000001e-01 2.923155666600000258e-01 -8.642001905609999479e-01 -1.236832079378000104e+00 7.862907931820000140e-01 8.592078009460000221e-01 6.556593899800000624e-02 -9.064543953129999831e-01 -9.242741361680000267e-01 -7.156809764199999480e-01 -5.872115099369999980e-01 2.023277848080000108e-01 -5.927845904559999601e-01 -5.233197227870000079e-01 -2.734098301219999860e-01 6.720726331530000319e-01 -6.335157795439999573e-01 7.098884854100000197e-02 7.162905782649999775e-01 1.124255982378999930e+00 1.583429243499999972e-01 5.842033585520000072e-01 4.226382227259999902e-01 1.304840176684000097e+00 -1.132293973690000066e-01 9.637587501740000340e-01 -7.710672562570000110e-01 -1.264166813510000098e-01 7.192692793349999558e-01 1.978347019799999995e-01 6.415752900009999982e-01 2.329545156439999931e-01 -6.333858592159999912e-01 3.975137766599999845e-01 -7.352106136500000111e-02 -9.715040976450000088e-01 3.537620229239999969e-01 7.553084176400000349e-02 1.165172840215999983e+00 4.504222195650000038e-01 4.003137019800000196e-02 -4.351017211980000021e-01 -3.232869208770000058e-01 -9.487121786650000166e-01 -3.992863033260000138e-01 3.377030571619999977e-01 -4.967646109400000037e-02 -9.147961161240000250e-01 -2.885583888020000209e-01 -4.624465850400000244e-02 3.043972175579999773e-01 2.166281768280000075e-01 -1.136721214600000009e-02 4.870852333280000224e-01 9.933449249960000227e-01 3.986956794939999771e-01 6.973356915700000547e-02 -2.275707902921999981e+00 -2.198676839020000107e-01 -7.528836603290000040e-01 -1.837326807516000082e+00 -8.481223155799999525e-02 -2.876549288849999941e-01 1.315131748160000003e-01 6.901263782550000059e-01 7.439921162589999692e-01 -1.309955241486000066e+00 -3.375445802899999792e-02 7.116473438560000364e-01 -1.350518449816000111e+00 -2.420720314999999859e-02 -3.867907443010000224e-01 2.111625321351000117e+00 -1.946025052400000011e-01 -7.435031296870000528e-01 9.234177301210000355e-01 -6.258338726499999838e-02 -2.665494468490000046e-01 -1.124016192905999967e+00 1.164216689722000098e+00 6.039291609200000410e-01 1.251132582349999967e-01 -8.618093296280000537e-01 1.121338668199999972e-01 -7.977762221959999733e-01 3.066711027630000252e-01 2.825177971999999760e-01 -6.029231263469999602e-01 5.442557428519999574e-01 1.088251449960000034e-01 5.871508626039999568e-01 -1.026013025219000063e+00 2.162563872830000067e-01 5.055600007230000026e-01 1.438824050885000094e+00 -3.275166772299999973e-01 5.579202417969999495e-01 -5.829822319999999891e-01 6.173267333590000128e-01 6.015513230229999619e-01 -1.082088057450000029e+00
-4.350176811059999760e-01 2.198591519549999984e-01 -2.205872741799999870e-01 -2.612536206930000104e-01 2.827438980900000010e-01 -1.500251200190000078e-01 1.837398710288999926e+00 -4.214071695039999788e-01 1.011688213932999902e+00 -9.272735007910000160e-01 1.377764347190000072e+00 -3.173953069839999808e-01 -5.973582551360000492e-01 -7.842712662049999839e-01 4.413769715840000218e-01 2.621821025419999729e-01 3.701968132880000262e-01 -4.051184319949999724e-01 7.538693408840000387e-01 5.699469036100000136e-02 -2.581338596500000124e-02 -6.197514548170000026e-01 -7.342010618400000022e-01 2.888930674799999876e-01 8.090204258580000474e-01 7.682935596600000139e-01 -1.172647554517000090e+00 -2.714962854599999864e-01 -1.213875350359000072e+00 -2.034811557239999957e-01 6.121312846299999944e-01 -1.209906004018000081e+00 -7.415113957910000053e-01 -9.606649131329999536e-01 7.180071034480000058e-01 5.529442995000000138e-02 3.434364026160000027e-01 -4.165834015120000178e-01 9.277554192850000492e-01 -6.801948480609999459e-01 -9.302146472600000271e-01 3.014576582790000070e-01 1.415931444444999965e+00 8.055197336430000021e-01 7.362943756140000184e-01 -1.160316889156000064e+00 1.060738219501000001e+00 -6.118775411789999508e-01 -9.667385906340000279e-01 6.438628818610000470e-01 1.698276014679999946e-01 7.983056881879999622e-01 4.009405810150000193e-01 6.703587110200000254e-02 4.574663911969999996e-01 1.100886650660999999e+00 -4.339304161670000104e-01 -2.272425125239999899e-01 5.161534888000000043e-01 -1.190724385590000017e-01 -1.075504771647999958e+00 2.544723746329999869e-01 -1.276829138300000110e+00 -5.633337836270000398e-01 2.776251352329999755e-01 -5.239226582329999937e-01 -8.019213210850000273e-01 -8.830450266010000382e-01 3.636670983260000267e-01 -3.336984515299999676e-02 1.050930435169999955e-01 -2.003286508200000093e-02 3.344684380619999953e-01 7.708724409999999361e-02 6.162512366069999858e-01 9.147612861399999351e-02 -9.083876649290000271e-01 -7.659631768069999902e-01 -6.799735842890000104e-01 -2.199606924660000018e-01 4.208767959759999733e-01 -5.876234375690000400e-01 -1.257884166960999917e+00 8.906797948519999952e-01 1.058658795933000052e+00 9.079178688200000014e-02 7.715324292599999578e-02 7.399782552150000470e-01 -8.037946582610000501e-01 9.870843613919999537e-01 -5.253825859170000445e-01 1.546507924513000010e+00 -7.358304604000000249e-02 -2.403657713859999878e-01 1.218886452492000005e+00 -5.996992560899999658e-01 -8.506624385399999544e-02 -1.378810119883999930e+00 -3.361017702540000096e-01 9.458890403299999861e-01 -2.474903161020000075e-01 2.485996069799999986e-01 5.774542253699999766e-02 -1.063535321490999941e+00 -1.648135899810000138e-01 8.336710573459999996e-01 -4.313439080129999881e-01 -1.256007438428000000e+00 1.533451328190000018e-01 2.104344264520000007e-01 1.683486516129999999e-01 2.098062344499999898e-02 1.308876481351999965e+00 1.208917523266999972e+00 -2.542870969430000017e-01 1.455667663159999903e-01 2.184171974369999991e-01 4.281823080330000031e-01 -6.525919795589999461e-01 2.187938422240000014e-01