
40 atoms
15 atom types
   0.0000000000    9.1895007650 xlo xhi
   0.0000000000    7.5952493066 ylo yhi
   0.0000000000    7.5764594072 zlo zhi
  -0.0633396606   -0.0852595432    0.0255998628 xy xz yz

Atoms # atomic

     1      1    0.0798478722    3.8368032434    3.6304729488
     2      1    4.6970341345   -0.0260148606    7.6044486573
     3      1    4.6787645323   -0.0155143169    3.7255001397
     4      1    4.8593765647    3.7391399666    3.6967310938
     5      7    0.4150287764    0.0665547434    7.8617719786
     6      7    0.5993279890    0.0421894740    3.6132430411
     7      7    0.2606302036    3.8112491803    7.6997263468
     8      7    5.1654855246    3.7205615662    7.6752502779
     9      9    2.5196343004    1.9099306671    1.8069115190
    10      9    2.4536190541    5.6095330455    1.8197508502
    11      9    7.2180822273    1.8329748794    1.8412215352
    12      9    7.1752185570    5.7552455648    1.8215526406
    13     11    2.3727287875    1.9615623904    5.7089602128
    14     11    2.3205576670    5.6486450360    5.7099433076
    15     11    7.2498784570    1.8567973517    5.6534120104
    16     11    7.2189907225    5.7638441188    5.6800112679
    17     15    1.9420281951    1.9158494354   -0.0259034612
    18     15   -0.2559309288    1.6884583537    1.9715682368
    19     15    2.3235125512    0.1037659440    2.0085926385
    20     15    2.2185732134    2.1753792449    3.7712331947
    21     15   -0.1424258369    1.6894630483    5.4689236989
    22     15    2.1492947846    0.0951470902    5.5327431569
    23     15    2.0892371064    6.0099760001    0.0054620707
    24     15   -0.2669015700    5.8867606602    1.8617752251
    25     15    1.9117248575    3.8806712083    1.7880972198
    26     15    2.0906263989    5.7485638006    3.7698278022
    27     15   -0.2012330218    5.9152779074    5.6488316350
    28     15    1.6852343709    3.8784164204    5.7916147700
    29     15    6.8594222489    1.8099738026   -0.0740105035
    30     15    4.3051940338    2.0537389966    1.7160848056
    31     15    6.5786513532   -0.0605319757    1.8844218037
    32     15    6.6906414532    1.8129345867    3.8194793362
    33     15    4.2009964921    2.1111855888    5.8201317172
    34     15    6.5370098763   -0.0339478181    5.6922382024
    35     15    6.7353767135    5.5987627032   -0.0286362466
    36     15    4.2343426135    5.5536249451    1.8501055876
    37     15    6.9552741354    3.7319974049    1.9457494752
    38     15    6.7240592742    5.6563370948    3.8007449366
    39     15    4.1442395962    5.5502352632    5.6821508565
    40     15    6.9263007906    3.7943325709    5.6410430767
