
5000 atoms
15 atom types
   0.0000000000   40.0654600000 xlo xhi
   0.0000000000   40.0654600000 ylo yhi
   0.0000000000   40.0654600000 zlo zhi
   0.0000000000    0.0000000000    0.0000000000 xy xz yz

Atoms # atomic

     1      6    0.2000000000    0.2000000000    0.2000000000
     2      6    0.2000000000    0.2000000000    4.2065460000
     3      6    0.2000000000    0.2000000000    8.2130920000
     4      6    0.2000000000    0.2000000000   12.2196380000
     5      6    0.2000000000    0.2000000000   16.2261840000
     6      6    0.2000000000    0.2000000000   20.2327300000
     7      6    0.2000000000    0.2000000000   24.2392760000
     8      6    0.2000000000    0.2000000000   28.2458220000
     9      6    0.2000000000    0.2000000000   32.2523680000
    10      6    0.2000000000    0.2000000000   36.2589140000
    11      6    0.2000000000    4.2065460000    0.2000000000
    12      6    0.2000000000    4.2065460000    4.2065460000
    13      6    0.2000000000    4.2065460000    8.2130920000
    14      6    0.2000000000    4.2065460000   12.2196380000
    15      6    0.2000000000    4.2065460000   16.2261840000
    16      6    0.2000000000    4.2065460000   20.2327300000
    17      6    0.2000000000    4.2065460000   24.2392760000
    18      6    0.2000000000    4.2065460000   28.2458220000
    19      6    0.2000000000    4.2065460000   32.2523680000
    20      6    0.2000000000    4.2065460000   36.2589140000
    21      6    0.2000000000    8.2130920000    0.2000000000
    22      6    0.2000000000    8.2130920000    4.2065460000
    23      6    0.2000000000    8.2130920000    8.2130920000
    24      6    0.2000000000    8.2130920000   12.2196380000
    25      6    0.2000000000    8.2130920000   16.2261840000
    26      6    0.2000000000    8.2130920000   20.2327300000
    27      6    0.2000000000    8.2130920000   24.2392760000
    28      6    0.2000000000    8.2130920000   28.2458220000
    29      6    0.2000000000    8.2130920000   32.2523680000
    30      6    0.2000000000    8.2130920000   36.2589140000
    31      6    0.2000000000   12.2196380000    0.2000000000
    32      6    0.2000000000   12.2196380000    4.2065460000
    33      6    0.2000000000   12.2196380000    8.2130920000
    34      6    0.2000000000   12.2196380000   12.2196380000
    35      6    0.2000000000   12.2196380000   16.2261840000
    36      6    0.2000000000   12.2196380000   20.2327300000
    37      6    0.2000000000   12.2196380000   24.2392760000
    38      6    0.2000000000   12.2196380000   28.2458220000
    39      6    0.2000000000   12.2196380000   32.2523680000
    40      6    0.2000000000   12.2196380000   36.2589140000
    41      6    0.2000000000   16.2261840000    0.2000000000
    42      6    0.2000000000   16.2261840000    4.2065460000
    43      6    0.2000000000   16.2261840000    8.2130920000
    44      6    0.2000000000   16.2261840000   12.2196380000
    45      6    0.2000000000   16.2261840000   16.2261840000
    46      6    0.2000000000   16.2261840000   20.2327300000
    47      6    0.2000000000   16.2261840000   24.2392760000
    48      6    0.2000000000   16.2261840000   28.2458220000
    49      6    0.2000000000   16.2261840000   32.2523680000
    50      6    0.2000000000   16.2261840000   36.2589140000
    51      6    0.2000000000   20.2327300000    0.2000000000
    52      6    0.2000000000   20.2327300000    4.2065460000
    53      6    0.2000000000   20.2327300000    8.2130920000
    54      6    0.2000000000   20.2327300000   12.2196380000
    55      6    0.2000000000   20.2327300000   16.2261840000
    56      6    0.2000000000   20.2327300000   20.2327300000
    57      6    0.2000000000   20.2327300000   24.2392760000
    58      6    0.2000000000   20.2327300000   28.2458220000
    59      6    0.2000000000   20.2327300000   32.2523680000
    60      6    0.2000000000   20.2327300000   36.2589140000
    61      6    0.2000000000   24.2392760000    0.2000000000
    62      6    0.2000000000   24.2392760000    4.2065460000
    63      6    0.2000000000   24.2392760000    8.2130920000
    64      6    0.2000000000   24.2392760000   12.2196380000
    65      6    0.2000000000   24.2392760000   16.2261840000
    66      6    0.2000000000   24.2392760000   20.2327300000
    67      6    0.2000000000   24.2392760000   24.2392760000
    68      6    0.2000000000   24.2392760000   28.2458220000
    69      6    0.2000000000   24.2392760000   32.2523680000
    70      6    0.2000000000   24.2392760000   36.2589140000
    71      6    0.2000000000   28.2458220000    0.2000000000
    72      6    0.2000000000   28.2458220000    4.2065460000
    73      6    0.2000000000   28.2458220000    8.2130920000
    74      6    0.2000000000   28.2458220000   12.2196380000
    75      6    0.2000000000   28.2458220000   16.2261840000
    76      6    0.2000000000   28.2458220000   20.2327300000
    77      6    0.2000000000   28.2458220000   24.2392760000
    78      6    0.2000000000   28.2458220000   28.2458220000
    79      6    0.2000000000   28.2458220000   32.2523680000
    80      6    0.2000000000   28.2458220000   36.2589140000
    81      6    0.2000000000   32.2523680000    0.2000000000
    82      6    0.2000000000   32.2523680000    4.2065460000
    83      6    0.2000000000   32.2523680000    8.2130920000
    84      6    0.2000000000   32.2523680000   12.2196380000
    85      6    0.2000000000   32.2523680000   16.2261840000
    86      6    0.2000000000   32.2523680000   20.2327300000
    87      6    0.2000000000   32.2523680000   24.2392760000
    88      6    0.2000000000   32.2523680000   28.2458220000
    89      6    0.2000000000   32.2523680000   32.2523680000
    90      6    0.2000000000   32.2523680000   36.2589140000
    91      6    0.2000000000   36.2589140000    0.2000000000
    92      6    0.2000000000   36.2589140000    4.2065460000
    93      6    0.2000000000   36.2589140000    8.2130920000
    94      6    0.2000000000   36.2589140000   12.2196380000
    95      6    0.2000000000   36.2589140000   16.2261840000
    96      6    0.2000000000   36.2589140000   20.2327300000
    97      6    0.2000000000   36.2589140000   24.2392760000
    98      6    0.2000000000   36.2589140000   28.2458220000
    99      6    0.2000000000   36.2589140000   32.2523680000
   100      6    0.2000000000   36.2589140000   36.2589140000
   101      6    4.2065460000    0.2000000000    0.2000000000
   102      6    4.2065460000    0.2000000000    4.2065460000
   103      6    4.2065460000    0.2000000000    8.2130920000
   104      6    4.2065460000    0.2000000000   12.2196380000
   105      6    4.2065460000    0.2000000000   16.2261840000
   106      6    4.2065460000    0.2000000000   20.2327300000
   107      6    4.2065460000    0.2000000000   24.2392760000
   108      6    4.2065460000    0.2000000000   28.2458220000
   109      6    4.2065460000    0.2000000000   32.2523680000
   110      6    4.2065460000    0.2000000000   36.2589140000
   111      6    4.2065460000    4.2065460000    0.2000000000
   112      6    4.2065460000    4.2065460000    4.2065460000
   113      6    4.2065460000    4.2065460000    8.2130920000
   114      6    4.2065460000    4.2065460000   12.2196380000
   115      6    4.2065460000    4.2065460000   16.2261840000
   116      6    4.2065460000    4.2065460000   20.2327300000
   117      6    4.2065460000    4.2065460000   24.2392760000
   118      6    4.2065460000    4.2065460000   28.2458220000
   119      6    4.2065460000    4.2065460000   32.2523680000
   120      6    4.2065460000    4.2065460000   36.2589140000
   121      6    4.2065460000    8.2130920000    0.2000000000
   122      6    4.2065460000    8.2130920000    4.2065460000
   123      6    4.2065460000    8.2130920000    8.2130920000
   124      6    4.2065460000    8.2130920000   12.2196380000
   125      6    4.2065460000    8.2130920000   16.2261840000
   126      6    4.2065460000    8.2130920000   20.2327300000
   127      6    4.2065460000    8.2130920000   24.2392760000
   128      6    4.2065460000    8.2130920000   28.2458220000
   129      6    4.2065460000    8.2130920000   32.2523680000
   130      6    4.2065460000    8.2130920000   36.2589140000
   131      6    4.2065460000   12.2196380000    0.2000000000
   132      6    4.2065460000   12.2196380000    4.2065460000
   133      6    4.2065460000   12.2196380000    8.2130920000
   134      6    4.2065460000   12.2196380000   12.2196380000
   135      6    4.2065460000   12.2196380000   16.2261840000
   136      6    4.2065460000   12.2196380000   20.2327300000
   137      6    4.2065460000   12.2196380000   24.2392760000
   138      6    4.2065460000   12.2196380000   28.2458220000
   139      6    4.2065460000   12.2196380000   32.2523680000
   140      6    4.2065460000   12.2196380000   36.2589140000
   141      6    4.2065460000   16.2261840000    0.2000000000
   142      6    4.2065460000   16.2261840000    4.2065460000
   143      6    4.2065460000   16.2261840000    8.2130920000
   144      6    4.2065460000   16.2261840000   12.2196380000
   145      6    4.2065460000   16.2261840000   16.2261840000
   146      6    4.2065460000   16.2261840000   20.2327300000
   147      6    4.2065460000   16.2261840000   24.2392760000
   148      6    4.2065460000   16.2261840000   28.2458220000
   149      6    4.2065460000   16.2261840000   32.2523680000
   150      6    4.2065460000   16.2261840000   36.2589140000
   151      6    4.2065460000   20.2327300000    0.2000000000
   152      6    4.2065460000   20.2327300000    4.2065460000
   153      6    4.2065460000   20.2327300000    8.2130920000
   154      6    4.2065460000   20.2327300000   12.2196380000
   155      6    4.2065460000   20.2327300000   16.2261840000
   156      6    4.2065460000   20.2327300000   20.2327300000
   157      6    4.2065460000   20.2327300000   24.2392760000
   158      6    4.2065460000   20.2327300000   28.2458220000
   159      6    4.2065460000   20.2327300000   32.2523680000
   160      6    4.2065460000   20.2327300000   36.2589140000
   161      6    4.2065460000   24.2392760000    0.2000000000
   162      6    4.2065460000   24.2392760000    4.2065460000
   163      6    4.2065460000   24.2392760000    8.2130920000
   164      6    4.2065460000   24.2392760000   12.2196380000
   165      6    4.2065460000   24.2392760000   16.2261840000
   166      6    4.2065460000   24.2392760000   20.2327300000
   167      6    4.2065460000   24.2392760000   24.2392760000
   168      6    4.2065460000   24.2392760000   28.2458220000
   169      6    4.2065460000   24.2392760000   32.2523680000
   170      6    4.2065460000   24.2392760000   36.2589140000
   171      6    4.2065460000   28.2458220000    0.2000000000
   172      6    4.2065460000   28.2458220000    4.2065460000
   173      6    4.2065460000   28.2458220000    8.2130920000
   174      6    4.2065460000   28.2458220000   12.2196380000
   175      6    4.2065460000   28.2458220000   16.2261840000
   176      6    4.2065460000   28.2458220000   20.2327300000
   177      6    4.2065460000   28.2458220000   24.2392760000
   178      6    4.2065460000   28.2458220000   28.2458220000
   179      6    4.2065460000   28.2458220000   32.2523680000
   180      6    4.2065460000   28.2458220000   36.2589140000
   181      6    4.2065460000   32.2523680000    0.2000000000
   182      6    4.2065460000   32.2523680000    4.2065460000
   183      6    4.2065460000   32.2523680000    8.2130920000
   184      6    4.2065460000   32.2523680000   12.2196380000
   185      6    4.2065460000   32.2523680000   16.2261840000
   186      6    4.2065460000   32.2523680000   20.2327300000
   187      6    4.2065460000   32.2523680000   24.2392760000
   188      6    4.2065460000   32.2523680000   28.2458220000
   189      6    4.2065460000   32.2523680000   32.2523680000
   190      6    4.2065460000   32.2523680000   36.2589140000
   191      6    4.2065460000   36.2589140000    0.2000000000
   192      6    4.2065460000   36.2589140000    4.2065460000
   193      6    4.2065460000   36.2589140000    8.2130920000
   194      6    4.2065460000   36.2589140000   12.2196380000
   195      6    4.2065460000   36.2589140000   16.2261840000
   196      6    4.2065460000   36.2589140000   20.2327300000
   197      6    4.2065460000   36.2589140000   24.2392760000
   198      6    4.2065460000   36.2589140000   28.2458220000
   199      6    4.2065460000   36.2589140000   32.2523680000
   200      6    4.2065460000   36.2589140000   36.2589140000
   201      6    8.2130920000    0.2000000000    0.2000000000
   202      6    8.2130920000    0.2000000000    4.2065460000
   203      6    8.2130920000    0.2000000000    8.2130920000
   204      6    8.2130920000    0.2000000000   12.2196380000
   205      6    8.2130920000    0.2000000000   16.2261840000
   206      6    8.2130920000    0.2000000000   20.2327300000
   207      6    8.2130920000    0.2000000000   24.2392760000
   208      6    8.2130920000    0.2000000000   28.2458220000
   209      6    8.2130920000    0.2000000000   32.2523680000
   210      6    8.2130920000    0.2000000000   36.2589140000
   211      6    8.2130920000    4.2065460000    0.2000000000
   212      6    8.2130920000    4.2065460000    4.2065460000
   213      6    8.2130920000    4.2065460000    8.2130920000
   214      6    8.2130920000    4.2065460000   12.2196380000
   215      6    8.2130920000    4.2065460000   16.2261840000
   216      6    8.2130920000    4.2065460000   20.2327300000
   217      6    8.2130920000    4.2065460000   24.2392760000
   218      6    8.2130920000    4.2065460000   28.2458220000
   219      6    8.2130920000    4.2065460000   32.2523680000
   220      6    8.2130920000    4.2065460000   36.2589140000
   221      6    8.2130920000    8.2130920000    0.2000000000
   222      6    8.2130920000    8.2130920000    4.2065460000
   223      6    8.2130920000    8.2130920000    8.2130920000
   224      6    8.2130920000    8.2130920000   12.2196380000
   225      6    8.2130920000    8.2130920000   16.2261840000
   226      6    8.2130920000    8.2130920000   20.2327300000
   227      6    8.2130920000    8.2130920000   24.2392760000
   228      6    8.2130920000    8.2130920000   28.2458220000
   229      6    8.2130920000    8.2130920000   32.2523680000
   230      6    8.2130920000    8.2130920000   36.2589140000
   231      6    8.2130920000   12.2196380000    0.2000000000
   232      6    8.2130920000   12.2196380000    4.2065460000
   233      6    8.2130920000   12.2196380000    8.2130920000
   234      6    8.2130920000   12.2196380000   12.2196380000
   235      6    8.2130920000   12.2196380000   16.2261840000
   236      6    8.2130920000   12.2196380000   20.2327300000
   237      6    8.2130920000   12.2196380000   24.2392760000
   238      6    8.2130920000   12.2196380000   28.2458220000
   239      6    8.2130920000   12.2196380000   32.2523680000
   240      6    8.2130920000   12.2196380000   36.2589140000
   241      6    8.2130920000   16.2261840000    0.2000000000
   242      6    8.2130920000   16.2261840000    4.2065460000
   243      6    8.2130920000   16.2261840000    8.2130920000
   244      6    8.2130920000   16.2261840000   12.2196380000
   245      6    8.2130920000   16.2261840000   16.2261840000
   246      6    8.2130920000   16.2261840000   20.2327300000
   247      6    8.2130920000   16.2261840000   24.2392760000
   248      6    8.2130920000   16.2261840000   28.2458220000
   249      6    8.2130920000   16.2261840000   32.2523680000
   250      6    8.2130920000   16.2261840000   36.2589140000
   251      6    8.2130920000   20.2327300000    0.2000000000
   252      6    8.2130920000   20.2327300000    4.2065460000
   253      6    8.2130920000   20.2327300000    8.2130920000
   254      6    8.2130920000   20.2327300000   12.2196380000
   255      6    8.2130920000   20.2327300000   16.2261840000
   256      6    8.2130920000   20.2327300000   20.2327300000
   257      6    8.2130920000   20.2327300000   24.2392760000
   258      6    8.2130920000   20.2327300000   28.2458220000
   259      6    8.2130920000   20.2327300000   32.2523680000
   260      6    8.2130920000   20.2327300000   36.2589140000
   261      6    8.2130920000   24.2392760000    0.2000000000
   262      6    8.2130920000   24.2392760000    4.2065460000
   263      6    8.2130920000   24.2392760000    8.2130920000
   264      6    8.2130920000   24.2392760000   12.2196380000
   265      6    8.2130920000   24.2392760000   16.2261840000
   266      6    8.2130920000   24.2392760000   20.2327300000
   267      6    8.2130920000   24.2392760000   24.2392760000
   268      6    8.2130920000   24.2392760000   28.2458220000
   269      6    8.2130920000   24.2392760000   32.2523680000
   270      6    8.2130920000   24.2392760000   36.2589140000
   271      6    8.2130920000   28.2458220000    0.2000000000
   272      6    8.2130920000   28.2458220000    4.2065460000
   273      6    8.2130920000   28.2458220000    8.2130920000
   274      6    8.2130920000   28.2458220000   12.2196380000
   275      6    8.2130920000   28.2458220000   16.2261840000
   276      6    8.2130920000   28.2458220000   20.2327300000
   277      6    8.2130920000   28.2458220000   24.2392760000
   278      6    8.2130920000   28.2458220000   28.2458220000
   279      6    8.2130920000   28.2458220000   32.2523680000
   280      6    8.2130920000   28.2458220000   36.2589140000
   281      6    8.2130920000   32.2523680000    0.2000000000
   282      6    8.2130920000   32.2523680000    4.2065460000
   283      6    8.2130920000   32.2523680000    8.2130920000
   284      6    8.2130920000   32.2523680000   12.2196380000
   285      6    8.2130920000   32.2523680000   16.2261840000
   286      6    8.2130920000   32.2523680000   20.2327300000
   287      6    8.2130920000   32.2523680000   24.2392760000
   288      6    8.2130920000   32.2523680000   28.2458220000
   289      6    8.2130920000   32.2523680000   32.2523680000
   290      6    8.2130920000   32.2523680000   36.2589140000
   291      6    8.2130920000   36.2589140000    0.2000000000
   292      6    8.2130920000   36.2589140000    4.2065460000
   293      6    8.2130920000   36.2589140000    8.2130920000
   294      6    8.2130920000   36.2589140000   12.2196380000
   295      6    8.2130920000   36.2589140000   16.2261840000
   296      6    8.2130920000   36.2589140000   20.2327300000
   297      6    8.2130920000   36.2589140000   24.2392760000
   298      6    8.2130920000   36.2589140000   28.2458220000
   299      6    8.2130920000   36.2589140000   32.2523680000
   300      6    8.2130920000   36.2589140000   36.2589140000
   301      6   12.2196380000    0.2000000000    0.2000000000
   302      6   12.2196380000    0.2000000000    4.2065460000
   303      6   12.2196380000    0.2000000000    8.2130920000
   304      6   12.2196380000    0.2000000000   12.2196380000
   305      6   12.2196380000    0.2000000000   16.2261840000
   306      6   12.2196380000    0.2000000000   20.2327300000
   307      6   12.2196380000    0.2000000000   24.2392760000
   308      6   12.2196380000    0.2000000000   28.2458220000
   309      6   12.2196380000    0.2000000000   32.2523680000
   310      6   12.2196380000    0.2000000000   36.2589140000
   311      6   12.2196380000    4.2065460000    0.2000000000
   312      6   12.2196380000    4.2065460000    4.2065460000
   313      6   12.2196380000    4.2065460000    8.2130920000
   314      6   12.2196380000    4.2065460000   12.2196380000
   315      6   12.2196380000    4.2065460000   16.2261840000
   316      6   12.2196380000    4.2065460000   20.2327300000
   317      6   12.2196380000    4.2065460000   24.2392760000
   318      6   12.2196380000    4.2065460000   28.2458220000
   319      6   12.2196380000    4.2065460000   32.2523680000
   320      6   12.2196380000    4.2065460000   36.2589140000
   321      6   12.2196380000    8.2130920000    0.2000000000
   322      6   12.2196380000    8.2130920000    4.2065460000
   323      6   12.2196380000    8.2130920000    8.2130920000
   324      6   12.2196380000    8.2130920000   12.2196380000
   325      6   12.2196380000    8.2130920000   16.2261840000
   326      6   12.2196380000    8.2130920000   20.2327300000
   327      6   12.2196380000    8.2130920000   24.2392760000
   328      6   12.2196380000    8.2130920000   28.2458220000
   329      6   12.2196380000    8.2130920000   32.2523680000
   330      6   12.2196380000    8.2130920000   36.2589140000
   331      6   12.2196380000   12.2196380000    0.2000000000
   332      6   12.2196380000   12.2196380000    4.2065460000
   333      6   12.2196380000   12.2196380000    8.2130920000
   334      6   12.2196380000   12.2196380000   12.2196380000
   335      6   12.2196380000   12.2196380000   16.2261840000
   336      6   12.2196380000   12.2196380000   20.2327300000
   337      6   12.2196380000   12.2196380000   24.2392760000
   338      6   12.2196380000   12.2196380000   28.2458220000
   339      6   12.2196380000   12.2196380000   32.2523680000
   340      6   12.2196380000   12.2196380000   36.2589140000
   341      6   12.2196380000   16.2261840000    0.2000000000
   342      6   12.2196380000   16.2261840000    4.2065460000
   343      6   12.2196380000   16.2261840000    8.2130920000
   344      6   12.2196380000   16.2261840000   12.2196380000
   345      6   12.2196380000   16.2261840000   16.2261840000
   346      6   12.2196380000   16.2261840000   20.2327300000
   347      6   12.2196380000   16.2261840000   24.2392760000
   348      6   12.2196380000   16.2261840000   28.2458220000
   349      6   12.2196380000   16.2261840000   32.2523680000
   350      6   12.2196380000   16.2261840000   36.2589140000
   351      6   12.2196380000   20.2327300000    0.2000000000
   352      6   12.2196380000   20.2327300000    4.2065460000
   353      6   12.2196380000   20.2327300000    8.2130920000
   354      6   12.2196380000   20.2327300000   12.2196380000
   355      6   12.2196380000   20.2327300000   16.2261840000
   356      6   12.2196380000   20.2327300000   20.2327300000
   357      6   12.2196380000   20.2327300000   24.2392760000
   358      6   12.2196380000   20.2327300000   28.2458220000
   359      6   12.2196380000   20.2327300000   32.2523680000
   360      6   12.2196380000   20.2327300000   36.2589140000
   361      6   12.2196380000   24.2392760000    0.2000000000
   362      6   12.2196380000   24.2392760000    4.2065460000
   363      6   12.2196380000   24.2392760000    8.2130920000
   364      6   12.2196380000   24.2392760000   12.2196380000
   365      6   12.2196380000   24.2392760000   16.2261840000
   366      6   12.2196380000   24.2392760000   20.2327300000
   367      6   12.2196380000   24.2392760000   24.2392760000
   368      6   12.2196380000   24.2392760000   28.2458220000
   369      6   12.2196380000   24.2392760000   32.2523680000
   370      6   12.2196380000   24.2392760000   36.2589140000
   371      6   12.2196380000   28.2458220000    0.2000000000
   372      6   12.2196380000   28.2458220000    4.2065460000
   373      6   12.2196380000   28.2458220000    8.2130920000
   374      6   12.2196380000   28.2458220000   12.2196380000
   375      6   12.2196380000   28.2458220000   16.2261840000
   376      6   12.2196380000   28.2458220000   20.2327300000
   377      6   12.2196380000   28.2458220000   24.2392760000
   378      6   12.2196380000   28.2458220000   28.2458220000
   379      6   12.2196380000   28.2458220000   32.2523680000
   380      6   12.2196380000   28.2458220000   36.2589140000
   381      6   12.2196380000   32.2523680000    0.2000000000
   382      6   12.2196380000   32.2523680000    4.2065460000
   383      6   12.2196380000   32.2523680000    8.2130920000
   384      6   12.2196380000   32.2523680000   12.2196380000
   385      6   12.2196380000   32.2523680000   16.2261840000
   386      6   12.2196380000   32.2523680000   20.2327300000
   387      6   12.2196380000   32.2523680000   24.2392760000
   388      6   12.2196380000   32.2523680000   28.2458220000
   389      6   12.2196380000   32.2523680000   32.2523680000
   390      6   12.2196380000   32.2523680000   36.2589140000
   391      6   12.2196380000   36.2589140000    0.2000000000
   392      6   12.2196380000   36.2589140000    4.2065460000
   393      6   12.2196380000   36.2589140000    8.2130920000
   394      6   12.2196380000   36.2589140000   12.2196380000
   395      6   12.2196380000   36.2589140000   16.2261840000
   396      6   12.2196380000   36.2589140000   20.2327300000
   397      6   12.2196380000   36.2589140000   24.2392760000
   398      6   12.2196380000   36.2589140000   28.2458220000
   399      6   12.2196380000   36.2589140000   32.2523680000
   400      6   12.2196380000   36.2589140000   36.2589140000
   401      6   16.2261840000    0.2000000000    0.2000000000
   402      6   16.2261840000    0.2000000000    4.2065460000
   403      6   16.2261840000    0.2000000000    8.2130920000
   404      6   16.2261840000    0.2000000000   12.2196380000
   405      6   16.2261840000    0.2000000000   16.2261840000
   406      6   16.2261840000    0.2000000000   20.2327300000
   407      6   16.2261840000    0.2000000000   24.2392760000
   408      6   16.2261840000    0.2000000000   28.2458220000
   409      6   16.2261840000    0.2000000000   32.2523680000
   410      6   16.2261840000    0.2000000000   36.2589140000
   411      6   16.2261840000    4.2065460000    0.2000000000
   412      6   16.2261840000    4.2065460000    4.2065460000
   413      6   16.2261840000    4.2065460000    8.2130920000
   414      6   16.2261840000    4.2065460000   12.2196380000
   415      6   16.2261840000    4.2065460000   16.2261840000
   416      6   16.2261840000    4.2065460000   20.2327300000
   417      6   16.2261840000    4.2065460000   24.2392760000
   418      6   16.2261840000    4.2065460000   28.2458220000
   419      6   16.2261840000    4.2065460000   32.2523680000
   420      6   16.2261840000    4.2065460000   36.2589140000
   421      6   16.2261840000    8.2130920000    0.2000000000
   422      6   16.2261840000    8.2130920000    4.2065460000
   423      6   16.2261840000    8.2130920000    8.2130920000
   424      6   16.2261840000    8.2130920000   12.2196380000
   425      6   16.2261840000    8.2130920000   16.2261840000
   426      6   16.2261840000    8.2130920000   20.2327300000
   427      6   16.2261840000    8.2130920000   24.2392760000
   428      6   16.2261840000    8.2130920000   28.2458220000
   429      6   16.2261840000    8.2130920000   32.2523680000
   430      6   16.2261840000    8.2130920000   36.2589140000
   431      6   16.2261840000   12.2196380000    0.2000000000
   432      6   16.2261840000   12.2196380000    4.2065460000
   433      6   16.2261840000   12.2196380000    8.2130920000
   434      6   16.2261840000   12.2196380000   12.2196380000
   435      6   16.2261840000   12.2196380000   16.2261840000
   436      6   16.2261840000   12.2196380000   20.2327300000
   437      6   16.2261840000   12.2196380000   24.2392760000
   438      6   16.2261840000   12.2196380000   28.2458220000
   439      6   16.2261840000   12.2196380000   32.2523680000
   440      6   16.2261840000   12.2196380000   36.2589140000
   441      6   16.2261840000   16.2261840000    0.2000000000
   442      6   16.2261840000   16.2261840000    4.2065460000
   443      6   16.2261840000   16.2261840000    8.2130920000
   444      6   16.2261840000   16.2261840000   12.2196380000
   445      6   16.2261840000   16.2261840000   16.2261840000
   446      6   16.2261840000   16.2261840000   20.2327300000
   447      6   16.2261840000   16.2261840000   24.2392760000
   448      6   16.2261840000   16.2261840000   28.2458220000
   449      6   16.2261840000   16.2261840000   32.2523680000
   450      6   16.2261840000   16.2261840000   36.2589140000
   451      6   16.2261840000   20.2327300000    0.2000000000
   452      6   16.2261840000   20.2327300000    4.2065460000
   453      6   16.2261840000   20.2327300000    8.2130920000
   454      6   16.2261840000   20.2327300000   12.2196380000
   455      6   16.2261840000   20.2327300000   16.2261840000
   456      6   16.2261840000   20.2327300000   20.2327300000
   457      6   16.2261840000   20.2327300000   24.2392760000
   458      6   16.2261840000   20.2327300000   28.2458220000
   459      6   16.2261840000   20.2327300000   32.2523680000
   460      6   16.2261840000   20.2327300000   36.2589140000
   461      6   16.2261840000   24.2392760000    0.2000000000
   462      6   16.2261840000   24.2392760000    4.2065460000
   463      6   16.2261840000   24.2392760000    8.2130920000
   464      6   16.2261840000   24.2392760000   12.2196380000
   465      6   16.2261840000   24.2392760000   16.2261840000
   466      6   16.2261840000   24.2392760000   20.2327300000
   467      6   16.2261840000   24.2392760000   24.2392760000
   468      6   16.2261840000   24.2392760000   28.2458220000
   469      6   16.2261840000   24.2392760000   32.2523680000
   470      6   16.2261840000   24.2392760000   36.2589140000
   471      6   16.2261840000   28.2458220000    0.2000000000
   472      6   16.2261840000   28.2458220000    4.2065460000
   473      6   16.2261840000   28.2458220000    8.2130920000
   474      6   16.2261840000   28.2458220000   12.2196380000
   475      6   16.2261840000   28.2458220000   16.2261840000
   476      6   16.2261840000   28.2458220000   20.2327300000
   477      6   16.2261840000   28.2458220000   24.2392760000
   478      6   16.2261840000   28.2458220000   28.2458220000
   479      6   16.2261840000   28.2458220000   32.2523680000
   480      6   16.2261840000   28.2458220000   36.2589140000