
40 atoms
15 atom types
   0.0000000000    7.9689773042 xlo xhi
   0.0000000000    7.9689773042 ylo yhi
   0.0000000000    7.9689773042 zlo zhi
   0.0000000000    0.0000000000    0.0000000000 xy xz yz

Atoms # atomic

     1      2   -0.0405988825    0.1089567162   -0.1179960678
     2      2   -0.0405988825    0.1089567162    3.8664925843
     3      2   -0.0405988825    4.0934453683   -0.1179960678
     4      2   -0.0405988825    4.0934453683    3.8664925843
     5      2    3.9438897696    0.1089567162   -0.1179960678
     6      2    3.9438897696    0.1089567162    3.8664925843
     7      2    3.9438897696    4.0934453683   -0.1179960678
     8      2    3.9438897696    4.0934453683    3.8664925843
     9      9    1.9462865723    2.0419540597    5.9709546091
    10      9    5.9307752244    2.0419540597    5.9709546091
    11      9    5.9307752244    6.0264427118    5.9709546091
    12     11    1.9462865723    6.0264427118    1.9864659570
    13     11    1.9462865723    6.0264427118    5.9709546091
    14     11    5.9307752244    2.0419540597    1.9864659570
    15     12    5.9307752244    6.0264427118    1.9864659570
    16     13    1.9462865723    2.0419540597    1.9864659570
    17     15    1.9922443261    1.9922443261    0.0000000000
    18     15    0.0000000000    1.9922443261    1.9922443261
    19     15    1.9922443261    0.0000000000    1.9922443261
    20     15    1.9922443261    1.9922443261    3.9844886521
    21     15    0.0000000000    1.9922443261    5.9767329782
    22     15    1.9922443261    0.0000000000    5.9767329782
    23     15    1.9922443261    5.9767329782    0.0000000000
    24     15    0.0000000000    5.9767329782    1.9922443261
    25     15    1.9922443261    3.9844886521    1.9922443261
    26     15    1.9922443261    5.9767329782    3.9844886521
    27     15    0.0000000000    5.9767329782    5.9767329782
    28     15    1.9922443261    3.9844886521    5.9767329782
    29     15    5.9767329782    1.9922443261    0.0000000000
    30     15    3.9844886521    1.9922443261    1.9922443261
    31     15    5.9767329782    0.0000000000    1.9922443261
    32     15    5.9767329782    1.9922443261    3.9844886521
    33     15    3.9844886521    1.9922443261    5.9767329782
    34     15    5.9767329782    0.0000000000    5.9767329782
    35     15    5.9767329782    5.9767329782    0.0000000000
    36     15    3.9844886521    5.9767329782    1.9922443261
    37     15    5.9767329782    3.9844886521    1.9922443261
    38     15    5.9767329782    5.9767329782    3.9844886521
    39     15    3.9844886521    5.9767329782    5.9767329782
    40     15    5.9767329782    3.9844886521    5.9767329782
