7.969184313487292393e+00 0.000000000000000000e+00 0.000000000000000000e+00 0.000000000000000000e+00 7.969184313487292393e+00 0.000000000000000000e+00 0.000000000000000000e+00 0.000000000000000000e+00 7.969184313487292393e+00
7.977127312473998977e+00 0.000000000000000000e+00 0.000000000000000000e+00 0.000000000000000000e+00 7.977127312473998977e+00 0.000000000000000000e+00 0.000000000000000000e+00 0.000000000000000000e+00 7.977127312473998977e+00
8.002116504265686103e+00 0.000000000000000000e+00 0.000000000000000000e+00 0.000000000000000000e+00 8.002116504265686103e+00 0.000000000000000000e+00 0.000000000000000000e+00 0.000000000000000000e+00 8.002116504265686103e+00
8.044674715949803101e+00 0.000000000000000000e+00 0.000000000000000000e+00 0.000000000000000000e+00 8.044674715949803101e+00 0.000000000000000000e+00 0.000000000000000000e+00 0.000000000000000000e+00 8.044674715949803101e+00
8.088477403835341306e+00 0.000000000000000000e+00 0.000000000000000000e+00 0.000000000000000000e+00 8.088477403835341306e+00 0.000000000000000000e+00 0.000000000000000000e+00 0.000000000000000000e+00 8.088477403835341306e+00
8.121542850235675459e+00 0.000000000000000000e+00 0.000000000000000000e+00 0.000000000000000000e+00 8.121542850235675459e+00 0.000000000000000000e+00 0.000000000000000000e+00 0.000000000000000000e+00 8.121542850235675459e+00
8.142409327544948283e+00 0.000000000000000000e+00 0.000000000000000000e+00 0.000000000000000000e+00 8.142409327544948283e+00 0.000000000000000000e+00 0.000000000000000000e+00 0.000000000000000000e+00 8.142409327544948283e+00
8.152740939810074750e+00 0.000000000000000000e+00 0.000000000000000000e+00 0.000000000000000000e+00 8.152740939810074750e+00 0.000000000000000000e+00 0.000000000000000000e+00 0.000000000000000000e+00 8.152740939810074750e+00
8.148654748318426400e+00 0.000000000000000000e+00 0.000000000000000000e+00 0.000000000000000000e+00 8.148654748318426400e+00 0.000000000000000000e+00 0.000000000000000000e+00 0.000000000000000000e+00 8.148654748318426400e+00
8.128364697533067229e+00 0.000000000000000000e+00 0.000000000000000000e+00 0.000000000000000000e+00 8.128364697533067229e+00 0.000000000000000000e+00 0.000000000000000000e+00 0.000000000000000000e+00 8.128364697533067229e+00
8.098417283921397924e+00 0.000000000000000000e+00 0.000000000000000000e+00 0.000000000000000000e+00 8.098417283921397924e+00 0.000000000000000000e+00 0.000000000000000000e+00 0.000000000000000000e+00 8.098417283921397924e+00
8.067981529081768244e+00 0.000000000000000000e+00 0.000000000000000000e+00 0.000000000000000000e+00 8.067981529081768244e+00 0.000000000000000000e+00 0.000000000000000000e+00 0.000000000000000000e+00 8.067981529081768244e+00
8.041795664492489948e+00 0.000000000000000000e+00 0.000000000000000000e+00 0.000000000000000000e+00 8.041795664492489948e+00 0.000000000000000000e+00 0.000000000000000000e+00 0.000000000000000000e+00 8.041795664492489948e+00
8.023759642163266648e+00 0.000000000000000000e+00 0.000000000000000000e+00 0.000000000000000000e+00 8.023759642163266648e+00 0.000000000000000000e+00 0.000000000000000000e+00 0.000000000000000000e+00 8.023759642163266648e+00
8.018071780119313985e+00 0.000000000000000000e+00 0.000000000000000000e+00 0.000000000000000000e+00 8.018071780119313985e+00 0.000000000000000000e+00 0.000000000000000000e+00 0.000000000000000000e+00 8.018071780119313985e+00
8.026255478747479799e+00 0.000000000000000000e+00 0.000000000000000000e+00 0.000000000000000000e+00 8.026255478747479799e+00 0.000000000000000000e+00 0.000000000000000000e+00 0.000000000000000000e+00 8.026255478747479799e+00
8.042598406181667769e+00 0.000000000000000000e+00 0.000000000000000000e+00 0.000000000000000000e+00 8.042598406181667769e+00 0.000000000000000000e+00 0.000000000000000000e+00 0.000000000000000000e+00 8.042598406181667769e+00
8.060151731554439536e+00 0.000000000000000000e+00 0.000000000000000000e+00 0.000000000000000000e+00 8.060151731554439536e+00 0.000000000000000000e+00 0.000000000000000000e+00 0.000000000000000000e+00 8.060151731554439536e+00
8.076226428515644429e+00 0.000000000000000000e+00 0.000000000000000000e+00 0.000000000000000000e+00 8.076226428515644429e+00 0.000000000000000000e+00 0.000000000000000000e+00 0.000000000000000000e+00 8.076226428515644429e+00
8.089905414230283753e+00 0.000000000000000000e+00 0.000000000000000000e+00 0.000000000000000000e+00 8.089905414230283753e+00 0.000000000000000000e+00 0.000000000000000000e+00 0.000000000000000000e+00 8.089905414230283753e+00
8.097656219414314904e+00 0.000000000000000000e+00 0.000000000000000000e+00 0.000000000000000000e+00 8.097656219414314904e+00 0.000000000000000000e+00 0.000000000000000000e+00 0.000000000000000000e+00 8.097656219414314904e+00
8.095624647207657176e+00 0.000000000000000000e+00 0.000000000000000000e+00 0.000000000000000000e+00 8.095624647207657176e+00 0.000000000000000000e+00 0.000000000000000000e+00 0.000000000000000000e+00 8.095624647207657176e+00
8.084288363102720254e+00 0.000000000000000000e+00 0.000000000000000000e+00 0.000000000000000000e+00 8.084288363102720254e+00 0.000000000000000000e+00 0.000000000000000000e+00 0.000000000000000000e+00 8.084288363102720254e+00
8.068297714248711117e+00 0.000000000000000000e+00 0.000000000000000000e+00 0.000000000000000000e+00 8.068297714248711117e+00 0.000000000000000000e+00 0.000000000000000000e+00 0.000000000000000000e+00 8.068297714248711117e+00
8.051739177133637071e+00 0.000000000000000000e+00 0.000000000000000000e+00 0.000000000000000000e+00 8.051739177133637071e+00 0.000000000000000000e+00 0.000000000000000000e+00 0.000000000000000000e+00 8.051739177133637071e+00
8.037194691394077495e+00 0.000000000000000000e+00 0.000000000000000000e+00 0.000000000000000000e+00 8.037194691394077495e+00 0.000000000000000000e+00 0.000000000000000000e+00 0.000000000000000000e+00 8.037194691394077495e+00
8.028611300096661907e+00 0.000000000000000000e+00 0.000000000000000000e+00 0.000000000000000000e+00 8.028611300096661907e+00 0.000000000000000000e+00 0.000000000000000000e+00 0.000000000000000000e+00 8.028611300096661907e+00
8.028945392610525644e+00 0.000000000000000000e+00 0.000000000000000000e+00 0.000000000000000000e+00 8.028945392610525644e+00 0.000000000000000000e+00 0.000000000000000000e+00 0.000000000000000000e+00 8.028945392610525644e+00
8.037027174723352374e+00 0.000000000000000000e+00 0.000000000000000000e+00 0.000000000000000000e+00 8.037027174723352374e+00 0.000000000000000000e+00 0.000000000000000000e+00 0.000000000000000000e+00 8.037027174723352374e+00
8.048152060781159634e+00 0.000000000000000000e+00 0.000000000000000000e+00 0.000000000000000000e+00 8.048152060781159634e+00 0.000000000000000000e+00 0.000000000000000000e+00 0.000000000000000000e+00 8.048152060781159634e+00
8.058433409310621798e+00 0.000000000000000000e+00 0.000000000000000000e+00 0.000000000000000000e+00 8.058433409310621798e+00 0.000000000000000000e+00 0.000000000000000000e+00 0.000000000000000000e+00 8.058433409310621798e+00
8.068759923553095348e+00 0.000000000000000000e+00 0.000000000000000000e+00 0.000000000000000000e+00 8.068759923553095348e+00 0.000000000000000000e+00 0.000000000000000000e+00 0.000000000000000000e+00 8.068759923553095348e+00
8.081353221803279752e+00 0.000000000000000000e+00 0.000000000000000000e+00 0.000000000000000000e+00 8.081353221803279752e+00 0.000000000000000000e+00 0.000000000000000000e+00 0.000000000000000000e+00 8.081353221803279752e+00
8.093300080306564226e+00 0.000000000000000000e+00 0.000000000000000000e+00 0.000000000000000000e+00 8.093300080306564226e+00 0.000000000000000000e+00 0.000000000000000000e+00 0.000000000000000000e+00 8.093300080306564226e+00
8.099119133839339568e+00 0.000000000000000000e+00 0.000000000000000000e+00 0.000000000000000000e+00 8.099119133839339568e+00 0.000000000000000000e+00 0.000000000000000000e+00 0.000000000000000000e+00 8.099119133839339568e+00
8.096679991508775487e+00 0.000000000000000000e+00 0.000000000000000000e+00 0.000000000000000000e+00 8.096679991508775487e+00 0.000000000000000000e+00 0.000000000000000000e+00 0.000000000000000000e+00 8.096679991508775487e+00
8.089332492198193947e+00 0.000000000000000000e+00 0.000000000000000000e+00 0.000000000000000000e+00 8.089332492198193947e+00 0.000000000000000000e+00 0.000000000000000000e+00 0.000000000000000000e+00 8.089332492198193947e+00
8.082215971064032445e+00 0.000000000000000000e+00 0.000000000000000000e+00 0.000000000000000000e+00 8.082215971064032445e+00 0.000000000000000000e+00 0.000000000000000000e+00 0.000000000000000000e+00 8.082215971064032445e+00
8.076652855297004052e+00 0.000000000000000000e+00 0.000000000000000000e+00 0.000000000000000000e+00 8.076652855297004052e+00 0.000000000000000000e+00 0.000000000000000000e+00 0.000000000000000000e+00 8.076652855297004052e+00
8.071516115802623403e+00 0.000000000000000000e+00 0.000000000000000000e+00 0.000000000000000000e+00 8.071516115802623403e+00 0.000000000000000000e+00 0.000000000000000000e+00 0.000000000000000000e+00 8.071516115802623403e+00
8.067531908202921542e+00 0.000000000000000000e+00 0.000000000000000000e+00 0.000000000000000000e+00 8.067531908202921542e+00 0.000000000000000000e+00 0.000000000000000000e+00 0.000000000000000000e+00 8.067531908202921542e+00
8.067870889439642923e+00 0.000000000000000000e+00 0.000000000000000000e+00 0.000000000000000000e+00 8.067870889439642923e+00 0.000000000000000000e+00 0.000000000000000000e+00 0.000000000000000000e+00 8.067870889439642923e+00
8.075618152224066648e+00 0.000000000000000000e+00 0.000000000000000000e+00 0.000000000000000000e+00 8.075618152224066648e+00 0.000000000000000000e+00 0.000000000000000000e+00 0.000000000000000000e+00 8.075618152224066648e+00
8.089682453411713325e+00 0.000000000000000000e+00 0.000000000000000000e+00 0.000000000000000000e+00 8.089682453411713325e+00 0.000000000000000000e+00 0.000000000000000000e+00 0.000000000000000000e+00 8.089682453411713325e+00
8.106507792671994395e+00 0.000000000000000000e+00 0.000000000000000000e+00 0.000000000000000000e+00 8.106507792671994395e+00 0.000000000000000000e+00 0.000000000000000000e+00 0.000000000000000000e+00 8.106507792671994395e+00
8.122276978278812010e+00 0.000000000000000000e+00 0.000000000000000000e+00 0.000000000000000000e+00 8.122276978278812010e+00 0.000000000000000000e+00 0.000000000000000000e+00 0.000000000000000000e+00 8.122276978278812010e+00
8.132809162481388299e+00 0.000000000000000000e+00 0.000000000000000000e+00 0.000000000000000000e+00 8.132809162481388299e+00 0.000000000000000000e+00 0.000000000000000000e+00 0.000000000000000000e+00 8.132809162481388299e+00
8.133962873405280902e+00 0.000000000000000000e+00 0.000000000000000000e+00 0.000000000000000000e+00 8.133962873405280902e+00 0.000000000000000000e+00 0.000000000000000000e+00 0.000000000000000000e+00 8.133962873405280902e+00
8.124215058465640737e+00 0.000000000000000000e+00 0.000000000000000000e+00 0.000000000000000000e+00 8.124215058465640737e+00 0.000000000000000000e+00 0.000000000000000000e+00 0.000000000000000000e+00 8.124215058465640737e+00
8.106458178861585040e+00 0.000000000000000000e+00 0.000000000000000000e+00 0.000000000000000000e+00 8.106458178861585040e+00 0.000000000000000000e+00 0.000000000000000000e+00 0.000000000000000000e+00 8.106458178861585040e+00
8.084997567542327346e+00 0.000000000000000000e+00 0.000000000000000000e+00 0.000000000000000000e+00 8.084997567542327346e+00 0.000000000000000000e+00 0.000000000000000000e+00 0.000000000000000000e+00 8.084997567542327346e+00
8.063549454476124367e+00 0.000000000000000000e+00 0.000000000000000000e+00 0.000000000000000000e+00 8.063549454476124367e+00 0.000000000000000000e+00 0.000000000000000000e+00 0.000000000000000000e+00 8.063549454476124367e+00
8.046403311401487457e+00 0.000000000000000000e+00 0.000000000000000000e+00 0.000000000000000000e+00 8.046403311401487457e+00 0.000000000000000000e+00 0.000000000000000000e+00 0.000000000000000000e+00 8.046403311401487457e+00
8.038487352953127996e+00 0.000000000000000000e+00 0.000000000000000000e+00 0.000000000000000000e+00 8.038487352953127996e+00 0.000000000000000000e+00 0.000000000000000000e+00 0.000000000000000000e+00 8.038487352953127996e+00
8.040636725342691804e+00 0.000000000000000000e+00 0.000000000000000000e+00 0.000000000000000000e+00 8.040636725342691804e+00 0.000000000000000000e+00 0.000000000000000000e+00 0.000000000000000000e+00 8.040636725342691804e+00
8.048588967112195292e+00 0.000000000000000000e+00 0.000000000000000000e+00 0.000000000000000000e+00 8.048588967112195292e+00 0.000000000000000000e+00 0.000000000000000000e+00 0.000000000000000000e+00 8.048588967112195292e+00
8.057574351201619578e+00 0.000000000000000000e+00 0.000000000000000000e+00 0.000000000000000000e+00 8.057574351201619578e+00 0.000000000000000000e+00 0.000000000000000000e+00 0.000000000000000000e+00 8.057574351201619578e+00
8.067148522445805270e+00 0.000000000000000000e+00 0.000000000000000000e+00 0.000000000000000000e+00 8.067148522445805270e+00 0.000000000000000000e+00 0.000000000000000000e+00 0.000000000000000000e+00 8.067148522445805270e+00
8.079206275850745911e+00 0.000000000000000000e+00 0.000000000000000000e+00 0.000000000000000000e+00 8.079206275850745911e+00 0.000000000000000000e+00 0.000000000000000000e+00 0.000000000000000000e+00 8.079206275850745911e+00
8.089734196519865250e+00 0.000000000000000000e+00 0.000000000000000000e+00 0.000000000000000000e+00 8.089734196519865250e+00 0.000000000000000000e+00 0.000000000000000000e+00 0.000000000000000000e+00 8.089734196519865250e+00
8.092718400297888692e+00 0.000000000000000000e+00 0.000000000000000000e+00 0.000000000000000000e+00 8.092718400297888692e+00 0.000000000000000000e+00 0.000000000000000000e+00 0.000000000000000000e+00 8.092718400297888692e+00
8.086781137684560861e+00 0.000000000000000000e+00 0.000000000000000000e+00 0.000000000000000000e+00 8.086781137684560861e+00 0.000000000000000000e+00 0.000000000000000000e+00 0.000000000000000000e+00 8.086781137684560861e+00
8.075596888691464414e+00 0.000000000000000000e+00 0.000000000000000000e+00 0.000000000000000000e+00 8.075596888691464414e+00 0.000000000000000000e+00 0.000000000000000000e+00 0.000000000000000000e+00 8.075596888691464414e+00
8.061962560558763258e+00 0.000000000000000000e+00 0.000000000000000000e+00 0.000000000000000000e+00 8.061962560558763258e+00 0.000000000000000000e+00 0.000000000000000000e+00 0.000000000000000000e+00 8.061962560558763258e+00
8.046865183774810859e+00 0.000000000000000000e+00 0.000000000000000000e+00 0.000000000000000000e+00 8.046865183774810859e+00 0.000000000000000000e+00 0.000000000000000000e+00 0.000000000000000000e+00 8.046865183774810859e+00
8.032300531313335767e+00 0.000000000000000000e+00 0.000000000000000000e+00 0.000000000000000000e+00 8.032300531313335767e+00 0.000000000000000000e+00 0.000000000000000000e+00 0.000000000000000000e+00 8.032300531313335767e+00
8.023123784614453413e+00 0.000000000000000000e+00 0.000000000000000000e+00 0.000000000000000000e+00 8.023123784614453413e+00 0.000000000000000000e+00 0.000000000000000000e+00 0.000000000000000000e+00 8.023123784614453413e+00
8.022582273792552954e+00 0.000000000000000000e+00 0.000000000000000000e+00 0.000000000000000000e+00 8.022582273792552954e+00 0.000000000000000000e+00 0.000000000000000000e+00 0.000000000000000000e+00 8.022582273792552954e+00
8.028489725523481724e+00 0.000000000000000000e+00 0.000000000000000000e+00 0.000000000000000000e+00 8.028489725523481724e+00 0.000000000000000000e+00 0.000000000000000000e+00 0.000000000000000000e+00 8.028489725523481724e+00
8.037733770625974827e+00 0.000000000000000000e+00 0.000000000000000000e+00 0.000000000000000000e+00 8.037733770625974827e+00 0.000000000000000000e+00 0.000000000000000000e+00 0.000000000000000000e+00 8.037733770625974827e+00
8.049696320845932007e+00 0.000000000000000000e+00 0.000000000000000000e+00 0.000000000000000000e+00 8.049696320845932007e+00 0.000000000000000000e+00 0.000000000000000000e+00 0.000000000000000000e+00 8.049696320845932007e+00
8.063036229314402448e+00 0.000000000000000000e+00 0.000000000000000000e+00 0.000000000000000000e+00 8.063036229314402448e+00 0.000000000000000000e+00 0.000000000000000000e+00 0.000000000000000000e+00 8.063036229314402448e+00
8.073509871370966096e+00 0.000000000000000000e+00 0.000000000000000000e+00 0.000000000000000000e+00 8.073509871370966096e+00 0.000000000000000000e+00 0.000000000000000000e+00 0.000000000000000000e+00 8.073509871370966096e+00
8.079356697476875127e+00 0.000000000000000000e+00 0.000000000000000000e+00 0.000000000000000000e+00 8.079356697476875127e+00 0.000000000000000000e+00 0.000000000000000000e+00 0.000000000000000000e+00 8.079356697476875127e+00
8.081101379496958614e+00 0.000000000000000000e+00 0.000000000000000000e+00 0.000000000000000000e+00 8.081101379496958614e+00 0.000000000000000000e+00 0.000000000000000000e+00 0.000000000000000000e+00 8.081101379496958614e+00
8.079254551606855017e+00 0.000000000000000000e+00 0.000000000000000000e+00 0.000000000000000000e+00 8.079254551606855017e+00 0.000000000000000000e+00 0.000000000000000000e+00 0.000000000000000000e+00 8.079254551606855017e+00
8.072421432572346234e+00 0.000000000000000000e+00 0.000000000000000000e+00 0.000000000000000000e+00 8.072421432572346234e+00 0.000000000000000000e+00 0.000000000000000000e+00 0.000000000000000000e+00 8.072421432572346234e+00
8.060875253834627330e+00 0.000000000000000000e+00 0.000000000000000000e+00 0.000000000000000000e+00 8.060875253834627330e+00 0.000000000000000000e+00 0.000000000000000000e+00 0.000000000000000000e+00 8.060875253834627330e+00
8.048073336270320510e+00 0.000000000000000000e+00 0.000000000000000000e+00 0.000000000000000000e+00 8.048073336270320510e+00 0.000000000000000000e+00 0.000000000000000000e+00 0.000000000000000000e+00 8.048073336270320510e+00
8.039899544280130428e+00 0.000000000000000000e+00 0.000000000000000000e+00 0.000000000000000000e+00 8.039899544280130428e+00 0.000000000000000000e+00 0.000000000000000000e+00 0.000000000000000000e+00 8.039899544280130428e+00
8.038279020983349454e+00 0.000000000000000000e+00 0.000000000000000000e+00 0.000000000000000000e+00 8.038279020983349454e+00 0.000000000000000000e+00 0.000000000000000000e+00 0.000000000000000000e+00 8.038279020983349454e+00
8.042515339471824731e+00 0.000000000000000000e+00 0.000000000000000000e+00 0.000000000000000000e+00 8.042515339471824731e+00 0.000000000000000000e+00 0.000000000000000000e+00 0.000000000000000000e+00 8.042515339471824731e+00
8.052427821254594775e+00 0.000000000000000000e+00 0.000000000000000000e+00 0.000000000000000000e+00 8.052427821254594775e+00 0.000000000000000000e+00 0.000000000000000000e+00 0.000000000000000000e+00 8.052427821254594775e+00
8.068462868047037162e+00 0.000000000000000000e+00 0.000000000000000000e+00 0.000000000000000000e+00 8.068462868047037162e+00 0.000000000000000000e+00 0.000000000000000000e+00 0.000000000000000000e+00 8.068462868047037162e+00
8.088379132865018306e+00 0.000000000000000000e+00 0.000000000000000000e+00 0.000000000000000000e+00 8.088379132865018306e+00 0.000000000000000000e+00 0.000000000000000000e+00 0.000000000000000000e+00 8.088379132865018306e+00
8.107320364753583419e+00 0.000000000000000000e+00 0.000000000000000000e+00 0.000000000000000000e+00 8.107320364753583419e+00 0.000000000000000000e+00 0.000000000000000000e+00 0.000000000000000000e+00 8.107320364753583419e+00
8.123020452900147959e+00 0.000000000000000000e+00 0.000000000000000000e+00 0.000000000000000000e+00 8.123020452900147959e+00 0.000000000000000000e+00 0.000000000000000000e+00 0.000000000000000000e+00 8.123020452900147959e+00
8.135495916731622756e+00 0.000000000000000000e+00 0.000000000000000000e+00 0.000000000000000000e+00 8.135495916731622756e+00 0.000000000000000000e+00 0.000000000000000000e+00 0.000000000000000000e+00 8.135495916731622756e+00
8.142486720498450126e+00 0.000000000000000000e+00 0.000000000000000000e+00 0.000000000000000000e+00 8.142486720498450126e+00 0.000000000000000000e+00 0.000000000000000000e+00 0.000000000000000000e+00 8.142486720498450126e+00
8.139199815177867947e+00 0.000000000000000000e+00 0.000000000000000000e+00 0.000000000000000000e+00 8.139199815177867947e+00 0.000000000000000000e+00 0.000000000000000000e+00 0.000000000000000000e+00 8.139199815177867947e+00
8.125626231600502791e+00 0.000000000000000000e+00 0.000000000000000000e+00 0.000000000000000000e+00 8.125626231600502791e+00 0.000000000000000000e+00 0.000000000000000000e+00 0.000000000000000000e+00 8.125626231600502791e+00
8.106122162042799673e+00 0.000000000000000000e+00 0.000000000000000000e+00 0.000000000000000000e+00 8.106122162042799673e+00 0.000000000000000000e+00 0.000000000000000000e+00 0.000000000000000000e+00 8.106122162042799673e+00
8.086091460716549051e+00 0.000000000000000000e+00 0.000000000000000000e+00 0.000000000000000000e+00 8.086091460716549051e+00 0.000000000000000000e+00 0.000000000000000000e+00 0.000000000000000000e+00 8.086091460716549051e+00
8.068531645653131079e+00 0.000000000000000000e+00 0.000000000000000000e+00 0.000000000000000000e+00 8.068531645653131079e+00 0.000000000000000000e+00 0.000000000000000000e+00 0.000000000000000000e+00 8.068531645653131079e+00
8.054748016177853742e+00 0.000000000000000000e+00 0.000000000000000000e+00 0.000000000000000000e+00 8.054748016177853742e+00 0.000000000000000000e+00 0.000000000000000000e+00 0.000000000000000000e+00 8.054748016177853742e+00
8.047268017393980344e+00 0.000000000000000000e+00 0.000000000000000000e+00 0.000000000000000000e+00 8.047268017393980344e+00 0.000000000000000000e+00 0.000000000000000000e+00 0.000000000000000000e+00 8.047268017393980344e+00
8.048998202364513688e+00 0.000000000000000000e+00 0.000000000000000000e+00 0.000000000000000000e+00 8.048998202364513688e+00 0.000000000000000000e+00 0.000000000000000000e+00 0.000000000000000000e+00 8.048998202364513688e+00
8.058319904468989492e+00 0.000000000000000000e+00 0.000000000000000000e+00 0.000000000000000000e+00 8.058319904468989492e+00 0.000000000000000000e+00 0.000000000000000000e+00 0.000000000000000000e+00 8.058319904468989492e+00
8.070349076745451100e+00 0.000000000000000000e+00 0.000000000000000000e+00 0.000000000000000000e+00 8.070349076745451100e+00 0.000000000000000000e+00 0.000000000000000000e+00 0.000000000000000000e+00 8.070349076745451100e+00
8.080454082486994594e+00 0.000000000000000000e+00 0.000000000000000000e+00 0.000000000000000000e+00 8.080454082486994594e+00 0.000000000000000000e+00 0.000000000000000000e+00 0.000000000000000000e+00 8.080454082486994594e+00
8.085436560074352741e+00 0.000000000000000000e+00 0.000000000000000000e+00 0.000000000000000000e+00 8.085436560074352741e+00 0.000000000000000000e+00 0.000000000000000000e+00 0.000000000000000000e+00 8.085436560074352741e+00
8.083671338672498763e+00 0.000000000000000000e+00 0.000000000000000000e+00 0.000000000000000000e+00 8.083671338672498763e+00 0.000000000000000000e+00 0.000000000000000000e+00 0.000000000000000000e+00 8.083671338672498763e+00
8.076408830521682347e+00 0.000000000000000000e+00 0.000000000000000000e+00 0.000000000000000000e+00 8.076408830521682347e+00 0.000000000000000000e+00 0.000000000000000000e+00 0.000000000000000000e+00 8.076408830521682347e+00
8.066801364569151644e+00 0.000000000000000000e+00 0.000000000000000000e+00 0.000000000000000000e+00 8.066801364569151644e+00 0.000000000000000000e+00 0.000000000000000000e+00 0.000000000000000000e+00 8.066801364569151644e+00
8.057513356248723113e+00 0.000000000000000000e+00 0.000000000000000000e+00 0.000000000000000000e+00 8.057513356248723113e+00 0.000000000000000000e+00 0.000000000000000000e+00 0.000000000000000000e+00 8.057513356248723113e+00
8.050423287276295525e+00 0.000000000000000000e+00 0.000000000000000000e+00 0.000000000000000000e+00 8.050423287276295525e+00 0.000000000000000000e+00 0.000000000000000000e+00 0.000000000000000000e+00 8.050423287276295525e+00
8.046059501859557983e+00 0.000000000000000000e+00 0.000000000000000000e+00 0.000000000000000000e+00 8.046059501859557983e+00 0.000000000000000000e+00 0.000000000000000000e+00 0.000000000000000000e+00 8.046059501859557983e+00
8.045962476123069251e+00 0.000000000000000000e+00 0.000000000000000000e+00 0.000000000000000000e+00 8.045962476123069251e+00 0.000000000000000000e+00 0.000000000000000000e+00 0.000000000000000000e+00 8.045962476123069251e+00
8.051838619352217563e+00 0.000000000000000000e+00 0.000000000000000000e+00 0.000000000000000000e+00 8.051838619352217563e+00 0.000000000000000000e+00 0.000000000000000000e+00 0.000000000000000000e+00 8.051838619352217563e+00
8.064256539227931952e+00 0.000000000000000000e+00 0.000000000000000000e+00 0.000000000000000000e+00 8.064256539227931952e+00 0.000000000000000000e+00 0.000000000000000000e+00 0.000000000000000000e+00 8.064256539227931952e+00
8.080957965501491813e+00 0.000000000000000000e+00 0.000000000000000000e+00 0.000000000000000000e+00 8.080957965501491813e+00 0.000000000000000000e+00 0.000000000000000000e+00 0.000000000000000000e+00 8.080957965501491813e+00
8.098131438749808453e+00 0.000000000000000000e+00 0.000000000000000000e+00 0.000000000000000000e+00 8.098131438749808453e+00 0.000000000000000000e+00 0.000000000000000000e+00 0.000000000000000000e+00 8.098131438749808453e+00
8.111740844440971543e+00 0.000000000000000000e+00 0.000000000000000000e+00 0.000000000000000000e+00 8.111740844440971543e+00 0.000000000000000000e+00 0.000000000000000000e+00 0.000000000000000000e+00 8.111740844440971543e+00
8.119261199820540398e+00 0.000000000000000000e+00 0.000000000000000000e+00 0.000000000000000000e+00 8.119261199820540398e+00 0.000000000000000000e+00 0.000000000000000000e+00 0.000000000000000000e+00 8.119261199820540398e+00
8.118258178931231583e+00 0.000000000000000000e+00 0.000000000000000000e+00 0.000000000000000000e+00 8.118258178931231583e+00 0.000000000000000000e+00 0.000000000000000000e+00 0.000000000000000000e+00 8.118258178931231583e+00
8.106790059373182089e+00 0.000000000000000000e+00 0.000000000000000000e+00 0.000000000000000000e+00 8.106790059373182089e+00 0.000000000000000000e+00 0.000000000000000000e+00 0.000000000000000000e+00 8.106790059373182089e+00
8.088225839010425133e+00 0.000000000000000000e+00 0.000000000000000000e+00 0.000000000000000000e+00 8.088225839010425133e+00 0.000000000000000000e+00 0.000000000000000000e+00 0.000000000000000000e+00 8.088225839010425133e+00
8.070876341830354406e+00 0.000000000000000000e+00 0.000000000000000000e+00 0.000000000000000000e+00 8.070876341830354406e+00 0.000000000000000000e+00 0.000000000000000000e+00 0.000000000000000000e+00 8.070876341830354406e+00
8.059869690210955895e+00 0.000000000000000000e+00 0.000000000000000000e+00 0.000000000000000000e+00 8.059869690210955895e+00 0.000000000000000000e+00 0.000000000000000000e+00 0.000000000000000000e+00 8.059869690210955895e+00
8.056369774848523235e+00 0.000000000000000000e+00 0.000000000000000000e+00 0.000000000000000000e+00 8.056369774848523235e+00 0.000000000000000000e+00 0.000000000000000000e+00 0.000000000000000000e+00 8.056369774848523235e+00
8.060378942035548278e+00 0.000000000000000000e+00 0.000000000000000000e+00 0.000000000000000000e+00 8.060378942035548278e+00 0.000000000000000000e+00 0.000000000000000000e+00 0.000000000000000000e+00 8.060378942035548278e+00
8.070983036493187157e+00 0.000000000000000000e+00 0.000000000000000000e+00 0.000000000000000000e+00 8.070983036493187157e+00 0.000000000000000000e+00 0.000000000000000000e+00 0.000000000000000000e+00 8.070983036493187157e+00
8.085798204930616961e+00 0.000000000000000000e+00 0.000000000000000000e+00 0.000000000000000000e+00 8.085798204930616961e+00 0.000000000000000000e+00 0.000000000000000000e+00 0.000000000000000000e+00 8.085798204930616961e+00
8.099458475479986319e+00 0.000000000000000000e+00 0.000000000000000000e+00 0.000000000000000000e+00 8.099458475479986319e+00 0.000000000000000000e+00 0.000000000000000000e+00 0.000000000000000000e+00 8.099458475479986319e+00
8.109072572210349605e+00 0.000000000000000000e+00 0.000000000000000000e+00 0.000000000000000000e+00 8.109072572210349605e+00 0.000000000000000000e+00 0.000000000000000000e+00 0.000000000000000000e+00 8.109072572210349605e+00
8.115749601652357370e+00 0.000000000000000000e+00 0.000000000000000000e+00 0.000000000000000000e+00 8.115749601652357370e+00 0.000000000000000000e+00 0.000000000000000000e+00 0.000000000000000000e+00 8.115749601652357370e+00
8.117938059524934857e+00 0.000000000000000000e+00 0.000000000000000000e+00 0.000000000000000000e+00 8.117938059524934857e+00 0.000000000000000000e+00 0.000000000000000000e+00 0.000000000000000000e+00 8.117938059524934857e+00
8.112088295093940360e+00 0.000000000000000000e+00 0.000000000000000000e+00 0.000000000000000000e+00 8.112088295093940360e+00 0.000000000000000000e+00 0.000000000000000000e+00 0.000000000000000000e+00 8.112088295093940360e+00
8.098828326188316495e+00 0.000000000000000000e+00 0.000000000000000000e+00 0.000000000000000000e+00 8.098828326188316495e+00 0.000000000000000000e+00 0.000000000000000000e+00 0.000000000000000000e+00 8.098828326188316495e+00
8.083042845455295833e+00 0.000000000000000000e+00 0.000000000000000000e+00 0.000000000000000000e+00 8.083042845455295833e+00 0.000000000000000000e+00 0.000000000000000000e+00 0.000000000000000000e+00 8.083042845455295833e+00
8.069968351294020792e+00 0.000000000000000000e+00 0.000000000000000000e+00 0.000000000000000000e+00 8.069968351294020792e+00 0.000000000000000000e+00 0.000000000000000000e+00 0.000000000000000000e+00 8.069968351294020792e+00
8.060203733651100322e+00 0.000000000000000000e+00 0.000000000000000000e+00 0.000000000000000000e+00 8.060203733651100322e+00 0.000000000000000000e+00 0.000000000000000000e+00 0.000000000000000000e+00 8.060203733651100322e+00
8.052429118764125704e+00 0.000000000000000000e+00 0.000000000000000000e+00 0.000000000000000000e+00 8.052429118764125704e+00 0.000000000000000000e+00 0.000000000000000000e+00 0.000000000000000000e+00 8.052429118764125704e+00