7.929794409996000049e+00 1.084880960059999983e-01 7.852919419067999840e+00 7.928700607833000014e+00 1.076302682610000006e-01 3.869517967766999966e+00 7.923240324755999708e+00 4.094823060867000208e+00 7.850586561826999876e+00 7.932497947448999831e+00 4.088609440695000430e+00 3.867357875288000013e+00 3.944770754723000206e+00 1.124852621809999953e-01 7.849118807016999710e+00 3.943482222147999927e+00 1.084320588650000000e-01 3.867534605228000189e+00 3.940191098794000091e+00 4.093126375583000076e+00 7.851623554783000003e+00 3.945644926567000166e+00 4.095839142794999610e+00 3.863293140715999829e+00 1.955707533712000012e+00 2.044316502306999794e+00 5.971222822865000168e+00 5.931866095775999881e+00 2.038829210299999861e+00 5.975973146779000267e+00 5.930382264247000101e+00 6.034502113971999648e+00 5.970168979184999891e+00 1.948272683351000012e+00 6.022243390099999871e+00 1.983602619964000002e+00 1.945285579022000055e+00 6.023929314855999806e+00 5.967635829177999618e+00 5.931705337017000090e+00 2.044941012209000153e+00 1.985681524757000105e+00 5.929498965545000111e+00 6.021809883499000371e+00 1.975161389031999892e+00 1.946134393354999936e+00 2.040168463301999857e+00 1.990916912911999903e+00 1.992486772464000078e+00 2.009592363831000039e+00 7.964739131601000111e+00 7.958387659911999812e+00 1.991458145393000034e+00 1.998861678713999890e+00 1.993753619105000041e+00 7.967984696116999999e+00 1.985303585522999903e+00 1.999381730762999965e+00 2.003251281828000163e+00 3.978102149175999802e+00 2.923568077000000213e-03 1.984974657860000047e+00 5.976004184418999721e+00 1.999454682812999984e+00 8.132655721000000074e-03 5.973089413487000066e+00 1.988950319683999934e+00 5.980091528391000111e+00 7.959464585185999752e+00 1.157413854999999984e-02 5.981440434527000249e+00 1.993611082658999889e+00 1.994447026070000017e+00 3.997845519020000182e+00 1.991846408366999999e+00 1.997454903951999983e+00 5.973874952396999838e+00 3.995858704114000126e+00 1.578452910999999983e-03 5.982023056583000375e+00 5.976497361333000136e+00 1.978549552448999993e+00 4.001707315211000093e+00 5.969485866189000234e+00 5.982281470362000420e+00 1.980351178257999889e+00 7.591218000999999833e-03 3.980184516826000163e+00 1.989995145945000043e+00 1.980242119457999994e+00 5.968755012124000281e+00 7.967201858509000090e+00 2.004631339564999948e+00 5.958158942256999602e+00 1.992312111598000035e+00 3.999182539371000100e+00 3.996379482342999889e+00 1.984342739674000100e+00 5.988484307770000292e+00 5.969811990151000280e+00 7.963633210435999921e+00 5.969073258424000272e+00 5.979874649444999690e+00 5.964447512402999863e+00 7.960622613317999807e+00 3.984313208281000218e+00 5.974064716770000061e+00 1.995097998259999894e+00 5.969909350585999697e+00 3.987876268661000090e+00 1.987259944252999899e+00 5.976016723126999608e+00 5.971308466654999592e+00 3.983053375553999853e+00 3.989259336363999875e+00 5.982523237332999955e+00 5.977918547344000189e+00 5.977569329938000386e+00 3.990036890113000112e+00 5.988012763301999719e+00
7.941740155009999746e+00 1.065013741390000018e-01 7.870548064421999612e+00 7.934636928407000411e+00 1.009454416960000045e-01 3.887277720929000147e+00 7.901990879080000418e+00 4.105251064674999562e+00 7.856367785742000009e+00 7.957450912007000277e+00 4.068354379072999905e+00 3.874663500911999847e+00 3.954131224853000059e+00 1.300718223429999931e-01 7.847963112278000253e+00 3.947021571038999976e+00 1.053422671350000006e-01 3.875304971698000145e+00 3.927200022492999931e+00 4.095450899149000179e+00 7.862933945538999936e+00 3.959980138530999838e+00 4.112158841968000189e+00 3.849934465335000056e+00 2.000023908180000198e+00 2.058651389591000136e+00 5.974512267428999657e+00 5.942967740081999573e+00 2.031839705187000078e+00 6.000101414617000195e+00 5.932823455167000049e+00 6.078926327672999896e+00 5.966094065247999900e+00 1.964977181160999953e+00 6.006289181324000026e+00 1.969111260063999946e+00 1.943954791746999922e+00 6.018650002729000192e+00 5.954746738329999900e+00 5.942333319933999825e+00 2.057470164072999985e+00 1.983436234680000076e+00 5.938710959059999794e+00 6.002502595123000440e+00 1.922889628302999920e+00 1.949703695399999992e+00 2.031268707894000158e+00 2.011123990386999960e+00 1.998266758718999947e+00 2.089946886346000010e+00 7.837148470260999922e+00 7.824431646014000208e+00 1.984682252467999897e+00 2.041790785508000194e+00 2.003913874834000186e+00 7.911076611359000310e+00 1.957048610258000032e+00 2.041836499455000009e+00 2.054088046935000023e+00 4.077660580601000007e+00 1.920707992800000166e-02 1.947575148095999964e+00 5.981187050429999985e+00 2.036615128793000107e+00 4.564029290899999924e-02 5.964446624399999841e+00 1.974843104100999946e+00 6.001109946469999734e+00 7.911186893161000100e+00 8.906882045000000248e-02 6.004820313254000119e+00 2.007966351127000060e+00 2.008026563305000067e+00 4.158509368246999571e+00 1.996515558337000007e+00 2.022715169046000128e+00 5.967599528534000441e+00 4.049454269677999818e+00 2.049449430400000077e-02 6.014366514985000300e+00 5.982619475009999910e+00 1.918307475240000004e+00 4.083321411163000292e+00 5.943309379941999815e+00 6.017319172485000145e+00 1.920775462749999996e+00 1.292210415000000050e-02 4.026213366614999956e+00 1.978160763798999966e+00 1.926183697094999925e+00 5.938819509666999785e+00 5.665315559800000039e-02 2.074697137582000028e+00 5.875255475770000402e+00 1.995536364596999901e+00 4.083120781183000148e+00 4.050959667496999650e+00 1.948081123386999902e+00 6.058263772703999628e+00 5.946695170126999663e+00 7.965015604096000068e+00 5.945440288184999922e+00 6.007842316032999896e+00 5.906139442017999563e+00 7.860017512557000430e+00 3.917159074326999946e+00 5.960211395603000284e+00 2.016168998251000044e+00 5.944952244690999699e+00 3.972640198379000065e+00 1.970583030130000024e+00 5.984089115701999972e+00 5.939191362174000233e+00 4.045144371456999899e+00 3.986629125738000212e+00 6.011311253082999961e+00 5.993469647068000228e+00 5.991392443349999652e+00 3.991829632878999945e+00 6.053820537722000239e+00
7.967962216826999899e+00 1.049538010900000068e-01 7.904812325532000195e+00 7.953126247536999927e+00 9.356215085400000631e-02 3.913361704230999827e+00 7.893768029120000307e+00 4.124887244324000335e+00 7.878413378764999919e+00 7.994767524495999922e+00 4.058626770635999748e+00 3.891342518187999922e+00 3.973791043174999871e+00 1.474141793369999898e-01 7.864567974928999838e+00 3.962972798788999995e+00 1.014145983980000026e-01 3.890953430755000220e+00 3.926516031389000183e+00 4.107427154634000210e+00 7.891514912581000019e+00 3.986898871123000010e+00 4.138928171149999891e+00 3.845116051869999829e+00 2.035698322711000152e+00 2.071550558960999933e+00 5.985669599263999885e+00 5.972462429910000203e+00 2.045910192695000074e+00 6.024706516289000113e+00 5.944955287294999557e+00 6.129553152065000177e+00 5.962626721660999607e+00 1.992695696204000111e+00 6.015891614243000340e+00 1.954239091488999991e+00 1.951243304668000000e+00 6.035213728953999990e+00 5.954881446392000122e+00 5.957360326763000202e+00 2.065333665559999865e+00 1.986183362018000054e+00 5.970938058566000350e+00 6.009537018918999607e+00 1.889314602930999953e+00 1.957615850060000051e+00 2.028847416865000142e+00 2.027654763285000161e+00 2.006947123724999837e+00 2.166122784060999784e+00 7.746288017761999711e+00 7.801805557815000292e+00 1.983138656426000068e+00 2.107454568120000094e+00 2.015812894541999967e+00 7.927246033294999883e+00 1.943155451134999989e+00 2.094121671602000134e+00 2.107580109759000120e+00 4.213501173772000286e+00 2.822352138699999943e-02 1.912589577000000096e+00 5.999186960204999863e+00 2.073555399172999802e+00 7.491828797999999789e-02 5.977997954497999977e+00 1.969739523532000103e+00 6.032257090360999996e+00 7.921969061889999608e+00 8.969365304599999367e-02 6.033281386466000207e+00 2.038552649215000123e+00 2.018740997852999985e+00 4.189759410377000393e+00 2.013410872545999819e+00 2.045263017298999841e+00 5.987772239788999862e+00 4.039331570536999649e+00 2.498143844799999985e-02 6.069452011751000242e+00 6.000560272871999778e+00 1.883325384996999974e+00 4.111044785484000208e+00 5.941705077195000406e+00 6.071541131505999722e+00 1.864342371476999993e+00 7.991976781244000350e+00 4.059970173333000254e+00 1.976922757719000057e+00 1.883252468443999961e+00 5.930984124475999764e+00 1.341204699519999988e-01 2.157353363712000149e+00 5.821070265510000397e+00 2.013259030294999974e+00 4.137124954515999598e+00 4.074513088107999614e+00 1.931061401937999911e+00 6.150745753322000020e+00 5.953951876000999732e+00 9.957177470000000072e-03 5.955109900501000197e+00 6.061821638939999701e+00 5.872950165526000355e+00 7.779652001572999964e+00 3.869538039237999882e+00 5.956485219979000156e+00 2.046246380481000049e+00 5.939343816832000300e+00 3.963137297262000036e+00 1.968825731124999923e+00 6.016208601411999979e+00 5.899193599456999948e+00 4.146309605130999998e+00 3.964845133819999923e+00 6.038895250416000060e+00 6.028964207279999599e+00 6.028652861668000185e+00 3.948128053527999892e+00 6.132063041564999928e+00
8.009788353749000223e+00 1.041877251849999964e-01 7.954207329029999940e+00 7.985227076123000423e+00 8.542322481899999875e-02 3.948909573373999837e+00 7.900002921192999850e+00 4.153898281563000339e+00 7.915915824913000165e+00 9.151164149999999661e-04 4.060287005515999859e+00 3.918296790108000138e+00 4.003159179436000414e+00 1.652436370789999998e-01 7.897826260683999955e+00 3.991290759046000058e+00 9.751667917999999602e-02 3.915792220192999995e+00 3.937980327931999813e+00 4.128456544019000418e+00 7.936402261539000413e+00 4.026210183119999897e+00 4.175743055556999650e+00 3.850164651566999829e+00 2.060002742896000161e+00 2.076700978488999816e+00 6.013091003566000126e+00 6.022884093814999673e+00 2.080105102787999982e+00 6.049942865408000081e+00 5.966479237507999578e+00 6.191933695950999628e+00 5.966986101082000005e+00 2.018695298848999897e+00 6.055139576148000025e+00 1.937971162793999946e+00 1.965533665893000048e+00 6.074913470475999944e+00 5.968155207989999766e+00 5.974377372622999616e+00 2.069559166098000169e+00 1.991631625681000051e+00 6.020892210655000021e+00 6.049481550850999589e+00 1.879544877749000031e+00 1.969523225904999952e+00 2.034596503508999898e+00 2.041995048138999902e+00 2.011437809705999946e+00 2.239216445320999949e+00 7.874764511460999650e+00 7.975833596332000397e+00 1.992864058889999956e+00 2.199194499769999922e+00 2.027538196275000093e+00 4.753863671999999582e-03 1.947278097569999922e+00 2.159767005498999914e+00 2.164810173864999854e+00 4.178849229005000332e+00 1.381013804600000026e-02 1.878667497496000038e+00 6.020596939398999758e+00 2.106201915265999869e+00 6.238249239000000224e-02 6.014507792010999943e+00 1.975196723790999975e+00 6.069128477320999693e+00 8.007053346957999196e+00 6.841622125000000262e-03 6.066871465725999890e+00 2.084167460066999933e+00 2.019775579268999977e+00 4.034470903613000203e+00 2.043192513448000014e+00 2.060603317077000174e+00 6.040364625155000056e+00 3.981123559429000203e+00 1.215874880999999984e-02 6.151280938435999879e+00 6.023750374608000335e+00 1.875767651472000086e+00 4.107901379832999744e+00 5.966187855851999622e+00 6.147591299675999821e+00 1.813999783976000035e+00 8.043181722527000588e+00 4.021893360380000004e+00 1.993156893139000019e+00 1.850437119478000048e+00 5.945020331375999945e+00 1.279989056420000049e-01 2.251023403538999990e+00 5.797483416945000023e+00 2.053921533126000121e+00 4.123456367908000075e+00 4.072219667158999634e+00 1.940453408967999893e+00 6.262461170126999654e+00 5.988592733323000239e+00 2.023126717500000130e-02 5.991544212148999904e+00 6.135820691246999914e+00 5.876031055359000277e+00 7.832644063702000281e+00 3.946035686226000205e+00 5.972939459681000152e+00 2.079730904564999872e+00 5.952422287861000250e+00 4.005532280741999962e+00 1.979468509127999987e+00 6.065492564800000430e+00 5.847702106599999894e+00 4.191920637485999634e+00 3.956571995461999780e+00 6.061209704101999662e+00 6.079509106680999864e+00 6.088104318680000127e+00 3.888890860308999997e+00 6.212172850994000406e+00
8.051628461520000002e+00 1.043065863359999984e-01 8.002992321617000471e+00 8.015784959835999146e+00 7.703179500000000013e-02 3.984264149787000164e+00 7.906338093093999930e+00 4.183675387647999955e+00 7.954374050975999921e+00 6.736222951999999708e-03 4.064550133302000212e+00 3.945321921445000157e+00 4.033386093504000236e+00 1.839993479979999957e-01 7.932412593467000228e+00 4.022939540203999798e+00 9.457532728400000477e-02 3.940869205878000159e+00 3.952211302968999806e+00 4.148869355662999858e+00 7.982558776300000325e+00 4.068152995672000394e+00 4.212938972365000367e+00 3.856169115745000209e+00 2.069617767788999974e+00 2.075257208272999865e+00 6.052692176539999913e+00 6.078468594469000230e+00 2.116252394282999827e+00 6.061272440173000042e+00 5.990094755437000096e+00 6.255153137449999790e+00 5.983266765179999780e+00 2.033872112097999896e+00 6.096731615852999830e+00 1.922425973024000090e+00 1.978322999088000023e+00 6.119309270160999681e+00 5.978593450218999905e+00 5.991268528508999935e+00 2.068749879667000080e+00 1.996998906114999972e+00 6.071700196443999609e+00 6.104418858804000259e+00 1.890346856547000076e+00 1.983089850624000006e+00 2.040411593212000163e+00 2.049253759923999940e+00 2.003022256178999871e+00 2.285070644751999946e+00 8.043419814986000560e+00 8.077892270903999972e+00 2.005572507412999972e+00 2.306390862564999811e+00 2.040867491950999923e+00 8.079089378857000625e+00 1.962229500162000040e+00 2.238311211511999854e+00 2.201657467393999923e+00 4.113238121119000112e+00 8.077693446050000503e+00 1.844294795309999957e+00 6.028493425711999976e+00 2.127745966841000147e+00 1.050664424100000022e-02 6.061103482996999858e+00 1.984884452670000021e+00 6.094691130552000402e+00 7.589764187000000266e-03 8.067694225432999744e+00 6.091832110966000080e+00 2.129271098524000205e+00 2.016627636036000037e+00 4.026256879242000153e+00 2.078299265216999814e+00 2.062427896516000114e+00 6.109666804078999647e+00 3.960905540070999820e+00 1.902518119300000005e-02 6.237143053008000315e+00 6.039581161023000355e+00 1.889468013080999986e+00 4.121492962625000089e+00 6.003729009034000086e+00 6.229348934593000209e+00 1.771408760831999940e+00 5.654844799300000335e-02 4.053647416389999592e+00 2.015489513426000023e+00 1.820707423280000015e+00 5.971917084579000168e+00 7.272460145400000409e-02 2.341795818252999872e+00 5.792574650741999953e+00 2.111639004571999934e+00 4.073446418526000201e+00 4.058273855208000214e+00 1.972865867462000100e+00 6.365804612815000318e+00 6.022061642170999818e+00 8.079322024831000704e+00 6.026666034675000283e+00 6.204903426416000123e+00 5.913399215713000423e+00 7.948225240665999891e+00 4.035321685631999777e+00 5.999567569674000289e+00 2.100610654283999956e+00 5.977185402277999771e+00 4.023857040901000381e+00 1.991848085160000004e+00 6.107327935852000067e+00 5.787146237767999857e+00 4.198500075683000432e+00 3.968764434134000041e+00 6.067295575419000109e+00 6.125391808012000006e+00 6.149543086928000335e+00 3.854017327486999989e+00 6.277061626148999984e+00
8.081985524771999607e+00 1.043248640599999943e-01 8.040316782194999234e+00 8.033666267375000558e+00 6.810764810199999852e-02 4.011304040780999891e+00 7.902524285090000156e+00 4.208821000660999623e+00 7.984094358527999979e+00 1.111851301400000082e-02 4.065534769250000124e+00 3.964315572871000004e+00 4.058109730860000042e+00 2.027693984660000059e-01 7.957937374213999604e+00 4.051288625746000349e+00 9.220114201000000065e-02 3.958663687116999785e+00 3.962272623291999807e+00 4.162800102253999768e+00 8.019403885158000733e+00 4.105725847331999745e+00 4.244505415317999741e+00 3.856233270935999879e+00 2.068039805515000218e+00 2.076459803036000196e+00 6.089639946386999902e+00 6.125348476183000379e+00 2.134175906120999944e+00 6.047769486352000179e+00 6.011624287234000441e+00 6.295438923756999650e+00 6.006544323176999711e+00 2.038306347649000205e+00 6.125445794457999860e+00 1.911625402017999908e+00 1.984847492724999940e+00 6.153709299941000133e+00 5.974484640427999871e+00 6.004990178681000046e+00 2.062713481964999929e+00 2.003667867386000001e+00 6.110592824248000099e+00 6.153574929866000076e+00 1.923131357574999978e+00 1.996960426440999914e+00 2.041120868316999903e+00 2.047541276791999820e+00 1.975053183928999978e+00 2.283130847525999929e+00 8.078000895473000043e+00 8.011627158297999429e+00 2.010174195352000037e+00 2.420512312895000129e+00 2.060281694452999801e+00 8.006898592664999370e+00 1.982258647367000082e+00 2.321815836257000054e+00 2.194714678643999939e+00 4.176841720934000080e+00 8.090154285738000439e+00 1.814557167383000102e+00 6.017775246350000273e+00 2.139411869608999872e+00 8.098910543982999144e+00 6.112375553398999628e+00 1.994107865294999948e+00 6.098851349072000438e+00 8.114195416701999619e+00 5.422310673999999886e-02 6.100949883178000022e+00 2.164123369867000157e+00 2.015396562835999994e+00 4.222100559150000265e+00 2.114756081552000122e+00 2.055991938897999916e+00 6.179204241825999588e+00 4.038190894582999846e+00 4.741587106100000198e-02 6.302169726454000198e+00 6.047687527858999879e+00 1.914759649981000011e+00 4.137684538242000443e+00 6.046114333923999773e+00 6.303172612397999863e+00 1.736409591181000023e+00 1.046046176020000024e-01 4.161441753483999584e+00 2.027307903292999924e+00 1.787254040434999913e+00 6.004766051918999814e+00 3.031134034100000166e-02 2.420397827752999831e+00 5.797731181679999679e+00 2.172465154528000042e+00 4.070790102463000437e+00 4.045324111663999744e+00 2.020328188749000109e+00 6.435194875619999699e+00 6.030896584329999754e+00 8.074550998588000184e+00 6.040291613945999671e+00 6.254162741943000370e+00 5.979977629553999918e+00 8.016776927568999511e+00 4.049070014070999868e+00 6.025479302627999800e+00 2.103918802016000011e+00 6.013245306934000389e+00 3.976677334216999871e+00 1.993142144786000047e+00 6.126075672499999847e+00 5.736272451489999646e+00 4.236492757816000321e+00 4.009754942736000416e+00 6.053515574839000379e+00 6.155730895390999713e+00 6.197847784418000217e+00 3.865291341989999907e+00 6.321089144277999949e+00
8.099799647094000576e+00 1.029168861460000028e-01 8.064290409809000693e+00 8.037922720951000244e+00 5.795826216500000322e-02 4.029099056676000323e+00 7.887979242383999612e+00 4.229608109095000401e+00 8.003906102189999316e+00 1.393508441700000086e-02 4.063347294145000177e+00 3.974711047583999957e+00 4.076362895542000153e+00 2.202071960820000118e-01 7.972322193712000349e+00 4.075128738885999802e+00 8.937201483600000496e-02 3.968580415601000055e+00 3.966993001990000156e+00 4.171031219630999765e+00 8.044316308234000346e+00 4.138106398301999889e+00 4.270698250459999734e+00 3.850388477740999793e+00 2.063327875906999953e+00 2.085267971873999926e+00 6.119266161148000371e+00 6.157958395010999730e+00 2.134186031271000150e+00 6.010161110982999766e+00 6.027350343929000154e+00 6.295749942129000409e+00 6.038261469953000393e+00 2.035370491079000033e+00 6.140909652703999910e+00 1.899367367251000083e+00 1.986441556856999968e+00 6.174056747786000443e+00 5.960634251536999884e+00 6.024920279034000181e+00 2.049902671492000117e+00 2.011914868012000035e+00 6.137549194085000437e+00 6.183179353945999601e+00 1.975326709693999927e+00 2.006741891643000208e+00 2.042673425204999837e+00 2.041754618821999934e+00 1.924815399054000009e+00 2.233504479391000164e+00 8.023943771698000660e+00 7.936710900914000000e+00 2.008583999245999951e+00 2.526587926474999968e+00 2.086586726704000139e+00 8.032587534990000222e+00 2.014387568514000026e+00 2.390456101760999985e+00 2.142852948049000172e+00 4.298542335608999565e+00 8.090224798757999380e+00 1.796349018414000076e+00 5.991394252602000314e+00 2.152741031420999818e+00 7.172014564000000342e-03 6.172505733562999808e+00 2.004074714079000064e+00 6.083227466680000362e+00 8.075719865664000352e+00 1.486158521210000083e-01 6.099824675857999701e+00 2.192985363731999815e+00 2.016048128415000029e+00 4.334068570487000116e+00 2.164925261799000022e+00 2.056654351005999803e+00 6.241521950010000097e+00 4.162526671002000356e+00 6.457117416299999746e-02 6.337468342541000332e+00 6.055548760777000439e+00 1.938614497856999908e+00 4.130080541559999929e+00 6.087527178038000031e+00 6.365332871601999898e+00 1.706872981806000000e+00 1.015177537299999933e-01 4.175771372845000329e+00 2.020831910785000129e+00 1.753243827906000085e+00 6.039736844163000384e+00 1.897766221799999931e-02 2.490902455439000018e+00 5.805106439179000155e+00 2.222098622140999957e+00 4.162610626949000192e+00 4.051190719318999989e+00 2.070722979725999835e+00 6.470022089227000173e+00 6.010646172262999798e+00 8.105485817304000307e+00 6.026106679009999745e+00 6.290088925422000266e+00 6.065634116538999976e+00 8.019150481040000500e+00 4.018702102237000418e+00 6.046202614731999603e+00 2.103424956430000048e+00 6.063061477136000299e+00 3.924305321592000073e+00 1.979011090975000053e+00 6.127893712349999689e+00 5.703672961110999751e+00 4.303799857739999624e+00 4.083422809912000240e+00 6.026109788998000205e+00 6.172071740406999574e+00 6.231762822643999833e+00 3.901325152955000153e+00 6.348634637875999687e+00
8.107494504726000528e+00 9.971016853200000141e-02 8.074984439291000626e+00 8.031161830956000003e+00 4.673106376600000278e-02 4.040298207072999581e+00 7.864699358612000424e+00 4.246763991821000062e+00 8.014038971212999130e+00 1.502777123000000048e-02 4.058830771671999571e+00 3.979090377644999954e+00 4.088571518674999794e+00 2.362608617849999981e-01 7.975285960708999866e+00 4.094049548642000325e+00 8.612056088899999740e-02 3.973051168188999949e+00 3.967121407183999970e+00 4.174631870201999995e+00 8.056422125598000861e+00 4.165754858132999949e+00 4.292142661018999661e+00 3.841270520069000050e+00 2.061285230481999964e+00 2.097351182237999989e+00 6.142931961719000356e+00 6.173722037919000094e+00 2.125219691143000134e+00 5.966749109079000135e+00 6.033309958180000265e+00 6.267694311894000059e+00 6.082392740046000057e+00 2.031624912883999823e+00 6.156910927725999905e+00 1.874052851482999937e+00 1.984973876056999931e+00 6.182999722155999578e+00 5.960435491600000191e+00 6.050056884019999970e+00 2.026653458580999878e+00 2.014682973481999984e+00 6.152134387682999694e+00 6.190124971852999813e+00 2.033252558707999924e+00 2.010499584153000008e+00 2.047584228193000122e+00 2.034761936001999949e+00 1.849897603182000028e+00 2.152651931275999964e+00 8.003946752809000031e+00 7.951566444376999776e+00 2.006757276266000201e+00 2.613305391523999877e+00 2.112042483841999996e+00 1.865436309200000156e-02 2.060083280494000135e+00 2.433714355343000069e+00 2.064123219462000058e+00 4.348532804050999623e+00 8.078334259815999729e+00 1.792440908137000077e+00 5.948777094195000004e+00 2.174962976774000190e+00 6.057146774100000131e-02 6.239040055332999657e+00 2.017573833991999965e+00 6.054997243577999733e+00 8.076845258554000040e+00 1.638734584609999878e-01 6.099860878939000308e+00 2.225900379650000094e+00 2.019852933935999850e+00 4.215560949501999666e+00 2.241259711655999798e+00 2.078904534048000130e+00 6.292038432721000163e+00 4.166738493527000209e+00 6.090051993799999730e-02 6.343731900407999724e+00 6.064206912763999924e+00 1.950490720102999953e+00 4.119952966604000011e+00 6.115422200338000103e+00 6.404921018313999959e+00 1.692286146155999926e+00 9.996144845000000390e-02 4.087766464417000201e+00 2.002280229329000072e+00 1.733978883730000087e+00 6.073104301414000261e+00 3.916121286299999865e-02 2.550629568154000104e+00 5.803726433505000060e+00 2.256522559313999921e+00 4.270505666705999737e+00 4.087504546823000240e+00 2.116408039963999954e+00 6.492941170529999972e+00 5.968661182432000167e+00 8.382238022999999663e-03 5.983954009188000356e+00 6.324046917450999672e+00 6.156419376813000000e+00 8.006104344191999900e+00 4.001102395523999711e+00 6.061485421279000363e+00 2.113803431046000103e+00 6.119045664604000123e+00 3.923877803773000217e+00 1.957426745075999897e+00 6.128943528027000376e+00 5.682064067777999661e+00 4.338016905766999720e+00 4.156428115508999710e+00 5.991068072327999872e+00 6.176840602581999740e+00 6.258971505622000109e+00 3.937189021377999865e+00 6.371740228804999795e+00
8.102075802904000312e+00 9.541604375999999943e-02 8.067762575013999182e+00 8.011140205167999184e+00 3.506517138999999672e-02 4.044506246402000293e+00 7.829152950751000262e+00 4.257076271080999952e+00 8.010178995491999743e+00 1.507503805699999914e-02 4.049539289715999857e+00 3.976188262346000091e+00 4.092517861461000273e+00 2.518599474400000093e-01 7.962183048300000010e+00 4.103979782621999917e+00 8.309356789699999524e-02 3.971516866018999892e+00 3.961366096528999847e+00 4.170015295380999909e+00 8.050944790919999150e+00 4.185289195856999989e+00 4.305633226660999568e+00 3.827980684597000138e+00 2.063982534101000077e+00 2.106712129517999799e+00 6.150340559714000399e+00 6.169890739090999610e+00 2.109399430839999923e+00 5.947669690228999606e+00 6.024523674990000188e+00 6.228065328819999635e+00 6.122779356334000056e+00 2.027295771099999921e+00 6.167438695248000258e+00 1.844158443291000093e+00 1.978916264710000039e+00 6.180628605764000305e+00 5.969034603533000194e+00 6.067279841581999733e+00 1.996265403920999937e+00 2.005257858964999862e+00 6.151680596644999888e+00 6.172297876434999608e+00 2.086574466409000017e+00 2.004337219835000017e+00 2.058738503239999851e+00 2.027109002847999886e+00 1.752627171967999997e+00 2.059541911475999854e+00 8.041455408191000132e+00 7.998072443255000330e+00 2.005224263101999860e+00 2.663014704636000207e+00 2.120994028444000090e+00 5.042865920200000074e-02 2.096220000791999993e+00 2.449656014643000201e+00 1.973402354349000021e+00 4.314691360198000147e+00 8.066739705289000639e+00 1.800236892715000092e+00 5.891357571707000140e+00 2.201560475031000053e+00 5.485001943900000287e-02 6.298441216479999660e+00 2.031372784390999886e+00 6.022851446035000222e+00 8.140301422321000402e+00 1.214265876859999954e-01 6.100491799300000295e+00 2.249431513620999912e+00 2.023066902305000081e+00 4.063277486725000109e+00 2.313069002241999961e+00 2.119171963000999970e+00 6.320714066404000242e+00 4.066046315286000024e+00 7.545934084300000289e-02 6.320952903732999673e+00 6.068053427769999786e+00 1.949763079115000020e+00 4.144387651123000005e+00 6.120518063008000276e+00 6.410024326211000378e+00 1.698586340557999952e+00 1.573051606049999940e-01 4.068197189504999756e+00 1.983118790313000090e+00 1.737667186362999994e+00 6.095247247854000072e+00 8.448128822099999768e-02 2.580260121798000128e+00 5.775884720836000241e+00 2.281779332303000007e+00 4.249430176756000321e+00 4.131660999951000335e+00 2.155507580952999991e+00 6.523799060917999881e+00 5.915030107721999997e+00 3.462988265599999810e-02 5.922482814009000229e+00 6.354284584406999947e+00 6.236488237854000083e+00 8.017516869061999785e+00 3.991078797592999994e+00 6.067329377010000080e+00 2.126490774509000037e+00 6.162876021205000221e+00 3.949973371771000163e+00 1.934790093763000041e+00 6.135612265812000032e+00 5.670681553145000109e+00 4.310093271638000267e+00 4.170198478530999786e+00 5.949454172541000396e+00 6.173779883717999795e+00 6.278590682781000076e+00 3.967670623185000078e+00 6.399046645574999914e+00
8.082469556901999752e+00 9.053556431600000287e-02 8.041866068186999783e+00 7.977558931279999932e+00 2.308534674100000059e-02 4.040379878220000442e+00 7.780631671780000147e+00 4.258868081344999723e+00 7.992768715233999899e+00 1.458803994500000069e-02 4.034503179930999828e+00 3.963990837069999884e+00 4.087248370405999864e+00 2.668134290429999833e-01 7.932412228496000139e+00 4.102525691847000111e+00 8.022401956100000397e-02 3.962948881283999913e+00 3.949773054280000029e+00 4.155606005343999598e+00 8.027402169202000337e+00 4.194624554817999673e+00 4.309568568087000173e+00 3.809265895924999867e+00 2.071016220479000136e+00 2.110568340574999979e+00 6.130423181401000399e+00 6.144091752779000437e+00 2.091403680682000221e+00 5.939850928126999996e+00 5.997503415817999617e+00 6.180272651633999637e+00 6.137825871779000408e+00 2.018191875854999928e+00 6.168601481732999936e+00 1.834183014209999962e+00 1.970759127613999961e+00 6.167835558331000279e+00 5.960145979894000412e+00 6.072092637981000074e+00 1.970207165976999963e+00 1.992423846919000097e+00 6.138039131421000327e+00 6.130553783395000345e+00 2.132483335653000189e+00 1.987736970175999929e+00 2.068808230863000031e+00 2.019647909154000054e+00 1.651023773017000096e+00 1.969640440310999940e+00 8.057576182380000063e+00 8.018954088491000221e+00 1.997095874246999969e+00 2.665924664933000177e+00 2.107009943273999930e+00 8.049514285772000122e+00 2.094400038662000085e+00 2.431847167387000130e+00 1.882355963146999933e+00 4.292156762870999565e+00 8.057406693448999846e+00 1.820787736755000052e+00 5.835895181290999822e+00 2.228170063888000207e+00 8.106930676249000101e+00 6.338176208860000216e+00 2.039607411276000093e+00 5.987735702550000205e+00 2.506137200100000059e-02 8.696032327000000062e-02 6.095674381475999937e+00 2.242836873719999957e+00 2.021719699800000214e+00 4.043535720855000015e+00 2.362376702335999834e+00 2.156681182605999947e+00 6.311808605039000319e+00 4.042554766810000366e+00 1.155664926500000050e-01 6.274830597272000432e+00 6.068318648227999823e+00 1.945628463982999934e+00 4.177394141006000261e+00 6.109019758109000442e+00 6.395082418803999857e+00 1.712696677904999909e+00 2.100475379719999869e-01 4.164235380585999735e+00 1.964568692287999907e+00 1.752335962736000008e+00 6.100949813607999594e+00 1.201574915510000008e-01 2.568638424637000206e+00 5.732043712979000283e+00 2.298533819268000045e+00 4.141963402262000216e+00 4.146535228180000310e+00 2.187055319825999877e+00 6.560627197840999791e+00 5.862735056992000260e+00 2.497480600900000083e-02 5.862892656047000273e+00 6.368137101091999597e+00 6.296068849749000051e+00 8.038988317348000123e+00 3.980713326737999935e+00 6.055195589995999939e+00 2.121865102821999916e+00 6.183795245987999678e+00 3.966660304271000026e+00 1.908365621986999994e+00 6.142547047302000074e+00 5.684870769644000177e+00 4.261199461526000043e+00 4.122023716608000043e+00 5.905864431137000103e+00 6.172625900175000346e+00 6.272620628640999563e+00 3.979941354516999930e+00 6.418200909197000037e+00