-3.498686221959999966e+04
-3.498783271280000190e+04
-3.498696957739999925e+04
-3.498783578680000210e+04
-3.498717381279999972e+04
-3.498765725609999936e+04
-3.498745889259999967e+04
-3.498761263239999971e+04
-3.498748093099999824e+04
-3.498748733889999858e+04
-3.498750249780000013e+04
-3.498774393779999809e+04
-3.498752686040000117e+04
-3.498800376010000036e+04
-3.498788293159999739e+04
-3.498807599460000347e+04
-3.498798093099999824e+04
-3.498814231499999732e+04
-3.498804635679999774e+04
-3.498806147300000157e+04
-3.498801649290000205e+04
-3.498807493740000064e+04
-3.498803224149999733e+04
-3.498806477080000332e+04
-3.498830029159999685e+04
-3.498821710149999853e+04
-3.498837684550000267e+04
-3.498845513239999855e+04
-3.498834921030000260e+04
-3.498840137700000196e+04
-3.498851401920000353e+04
-3.498829088179999962e+04
-3.498841573510000308e+04
-3.498840268199999991e+04
-3.498833545720000257e+04
-3.498833921559999726e+04
-3.498829679860000033e+04
-3.498837164369999664e+04
-3.498835677880000003e+04
-3.498828236910000123e+04
-3.498838738339999691e+04
-3.498816709370000171e+04
-3.498816608399999677e+04
-3.498809533599999850e+04
-3.498812285900000279e+04
-3.498810755680000148e+04
-3.498807176769999933e+04
-3.498803277099999832e+04
-3.498796304280000186e+04
-3.498811482899999828e+04
-3.498805822990000161e+04
-3.498805313919999753e+04
-3.498792644580000342e+04
-3.498813929630000348e+04
-3.498819956670000101e+04
-3.498798711529999855e+04
-3.498809975700000359e+04
-3.498788126029999694e+04
-3.498816269740000280e+04
-3.498783183860000281e+04
-3.498789397279999685e+04
-3.498787068990000262e+04
-3.498793929930000013e+04
-3.498765598589999718e+04
-3.498783846469999844e+04
-3.498799025830000028e+04
-3.498787686969999777e+04
-3.498805781720000232e+04
-3.498831215369999700e+04
-3.498836453459999757e+04
-3.498803916449999815e+04
-3.498823752499999682e+04
-3.498798377959999925e+04
-3.498807358519999980e+04
-3.498779653600000165e+04
-3.498799210039999889e+04
-3.498789947750000283e+04
-3.498834531050000078e+04
-3.498804665360000217e+04
-3.498823477190000267e+04
-3.498817230310000014e+04
-3.498843181760000152e+04
-3.498855918899999961e+04
-3.498845178070000111e+04
-3.498842271839999739e+04
-3.498820798249999643e+04
-3.498816158210000140e+04
-3.498796035480000137e+04
-3.498829176939999888e+04
-3.498803163740000309e+04
-3.498830680369999754e+04
-3.498841040490000159e+04
-3.498835080200000084e+04
-3.498811680319999869e+04
-3.498819776730000012e+04
-3.498815291859999707e+04
-3.498839212830000179e+04
-3.498836573479999788e+04
-3.498835196320000250e+04
-3.498824511070000153e+04
-3.498816334089999873e+04
-3.498798297540000203e+04
-3.498787845180000295e+04
-3.498822006859999965e+04
-3.498815839959999721e+04
-3.498828583839999919e+04
-3.498795377719999669e+04
-3.498801812020000216e+04
-3.498805319610000151e+04
-3.498830232409999735e+04
-3.498806267900000239e+04
-3.498807526199999847e+04
-3.498805800260000251e+04
-3.498800024480000138e+04
-3.498799912390000100e+04
-3.498805412439999782e+04
-3.498795249689999764e+04
-3.498815723160000198e+04
-3.498808769710000342e+04
-3.498798528290000104e+04
-3.498827037430000200e+04
-3.498811083720000170e+04
-3.498811062169999786e+04
-3.498798945760000061e+04
-3.498781324689999747e+04
-3.498789981560000160e+04
-3.498797940779999772e+04
-3.498796008469999651e+04
-3.498831185689999984e+04
-3.498817544289999933e+04
-3.498803909199999907e+04
-3.498814847670000017e+04
-3.498812277809999796e+04
-3.498798622469999827e+04
-3.498792015700000047e+04
-3.498779173959999753e+04
-3.498804314000000159e+04
-3.498810942660000001e+04
-3.498817851710000105e+04
-3.498826455819999683e+04
-3.498825303700000222e+04
-3.498819898970000213e+04
-3.498812221699999645e+04
-3.498811065029999736e+04
-3.498843451810000261e+04
-3.498833890249999968e+04
-3.498838617230000091e+04
-3.498819227069999761e+04
-3.498819427759999962e+04
-3.498812631729999703e+04
-3.498802307789999759e+04
-3.498805296249999810e+04
-3.498823159049999958e+04
-3.498827864920000138e+04
-3.498818127729999833e+04
-3.498819327029999840e+04
-3.498831390100000135e+04
-3.498824372559999756e+04
-3.498828576980000071e+04
-3.498831168659999821e+04
-3.498818022850000125e+04
-3.498824548979999963e+04
-3.498824083809999865e+04
-3.498834359679999761e+04
-3.498835765489999903e+04
-3.498831992590000300e+04
-3.498814828850000049e+04
-3.498805195079999976e+04
-3.498810490220000065e+04
-3.498813657940000121e+04
-3.498796048970000265e+04
-3.498821847839999828e+04
-3.498809850590000133e+04
-3.498778879479999887e+04
-3.498765041480000218e+04
-3.498790570860000298e+04
-3.498801638739999908e+04
-3.498822037699999782e+04
-3.498818603759999678e+04
-3.498802390670000023e+04
-3.498788414880000346e+04
-3.498777422749999823e+04
-3.498765992810000171e+04
-3.498794082709999930e+04
-3.498802198589999898e+04
-3.498774231439999858e+04
-3.498773388130000239e+04
-3.498772201050000149e+04
-3.498791905370000313e+04
-3.498806514990000142e+04
-3.498803428749999875e+04
-3.498789844050000102e+04
-3.498783572299999651e+04
-3.498791174809999939e+04
-3.498785235259999899e+04
-3.498780429020000156e+04
-3.498777023840000038e+04
-3.498808259309999994e+04
-3.498817446119999659e+04
-3.498823797470000136e+04
-3.498835065310000209e+04
-3.498813970069999777e+04
-3.498804005719999986e+04
-3.498831956979999813e+04
-3.498802124100000219e+04
-3.498789065580000170e+04
-3.498804353439999977e+04
-3.498806668640000134e+04
-3.498807111630000145e+04
-3.498822421780000150e+04
-3.498812437289999798e+04
-3.498808335919999809e+04
-3.498825155059999815e+04
-3.498814539949999744e+04
-3.498809744540000247e+04
-3.498815248969999811e+04
-3.498838809670000046e+04
-3.498829872479999904e+04
-3.498836869429999933e+04
-3.498827144299999782e+04
-3.498788940620000358e+04
-3.498790139710000221e+04
-3.498806407230000332e+04
-3.498810972909999691e+04
-3.498817968870000186e+04
-3.498808824129999994e+04
-3.498802913290000288e+04
-3.498820662740000262e+04
-3.498828481610000017e+04
-3.498799213359999703e+04
-3.498801686180000252e+04
-3.498807313109999814e+04
-3.498814993020000111e+04
-3.498795394729999680e+04
-3.498793323090000194e+04
-3.498787196370000311e+04
-3.498803093700000318e+04
-3.498817478700000356e+04
-3.498813968520000344e+04
-3.498814949440000055e+04
-3.498811742650000087e+04
-3.498821375670000270e+04
-3.498829875680000259e+04
-3.498814957670000149e+04
-3.498811888280000130e+04
-3.498797869060000085e+04
-3.498788261179999972e+04
-3.498809441939999670e+04
-3.498805093669999769e+04
-3.498799780550000287e+04
-3.498817162130000361e+04
-3.498815798299999733e+04
-3.498796246709999832e+04
-3.498808475080000062e+04
-3.498807432960000006e+04
-3.498801926839999942e+04
-3.498814334830000007e+04
-3.498803558630000043e+04
-3.498787602850000258e+04
-3.498803640940000332e+04
-3.498821284349999769e+04
-3.498803419449999637e+04
-3.498776676189999853e+04
-3.498783387360000052e+04
-3.498784381839999696e+04
-3.498787202429999888e+04
-3.498781573460000072e+04
-3.498771442509999906e+04
-3.498766823650000151e+04
-3.498784731559999636e+04
-3.498810516669999924e+04
-3.498824880229999690e+04
-3.498807271900000342e+04
-3.498792137540000112e+04
-3.498785155010000017e+04
-3.498801238130000274e+04
-3.498798851080000168e+04
-3.498802784100000281e+04
-3.498808188939999673e+04
-3.498786493480000354e+04
-3.498774954099999741e+04
-3.498809683029999724e+04
-3.498814524469999742e+04
-3.498789580019999994e+04
-3.498797147440000117e+04
-3.498798517149999680e+04
-3.498802562030000263e+04
-3.498824317519999749e+04
-3.498811185590000241e+04
-3.498818734039999981e+04
-3.498818010530000174e+04
-3.498818805389999761e+04
-3.498835029979999672e+04
-3.498813370240000222e+04
-3.498826572599999781e+04
-3.498819269699999859e+04
-3.498836415940000006e+04
-3.498822050660000241e+04
-3.498819776229999843e+04
-3.498806750270000339e+04
