-7.759784695839999635e-01 1.238520569799999999e-01 5.253083521939999612e-01 -8.814269415940000352e-01 7.937413278999999253e-03 -3.297490674449999881e-01 -8.625692624009999587e-01 -5.680380544900000273e-02 4.906467351639999808e-01 -8.574483259909999600e-01 4.925929922899999897e-02 -2.646291701899999849e-01 6.065302235439999912e-01 -1.279336031100000021e-02 5.319555540510000347e-01 7.219013518939999541e-01 -1.653169230400000078e-01 -3.180122460340000234e-01 7.038655278690000294e-01 8.277849319499999692e-02 5.559391620529999800e-01 6.992577870570000353e-01 2.345674397149999924e-01 -3.445087346240000015e-01 -2.349569277480000051e-01 1.859262944089999925e-01 -2.972310793919999972e-01 -5.905442739700000193e-02 4.221494189289999865e-01 -4.199984090350000199e-01 -2.877166184699999837e-02 8.724337835199999502e-02 -3.583497836649999768e-01 7.142470812760000065e-01 -2.744301581870000062e-01 -2.926297318050000151e-01 2.653690671050000227e-01 1.246898000479999963e-01 -3.324167513590000067e-01 3.936254085900000033e-01 -5.595357761910000338e-01 -1.352453586869999946e-01 4.624774981340000202e-01 -2.268104915080000061e-01 -2.640554497700000128e-02 8.667998982269999875e-01 -7.205048574579999698e-01 -4.700448930660000024e-01 1.227487202410000033e-01 -2.585981828489999912e-01 -4.023996610539000152e+00 -3.657418852055000169e+00 -1.906885743710000081e-01 1.924476328760000021e-01 5.257639486900000242e-02 -2.320390905805000070e+00 1.347693536479999954e-01 1.474417815919999986e-01 -2.326173319629999958e-01 4.066983064548000293e+00 3.674876958500000040e-02 -9.528536320600000664e-02 1.269192173929999945e-01 -1.270078406999999897e-03 -1.815157120910000088e-01 1.065432570799999951e-01 -8.384524403000000528e-03 -3.251185085500000321e-02 -6.050147575530000488e-01 1.164533527387999978e+00 -1.490292852690000003e-01 1.531842514669999877e-01 7.733461575699999979e-02 3.996083434588999950e+00 1.508943159260000000e-01 -5.326440092600000231e-02 1.462464353900000055e-02 3.103318058780000221e-01 4.867598272790000236e-01 -4.442377913699999820e-02 7.659933854200000336e-02 8.235929875599999617e-02 2.258314998189999978e-01 1.099454303710000053e-01 3.765575880199999864e-02 -5.959662753400000318e-02 -9.520673918119999524e-01 2.221030067841000211e+00 -1.278575888579999986e-01 1.272808963060000076e-01 1.118818119200000044e-01 2.230637323663999805e+00 1.977171253230000092e-01 5.766370086799999656e-02 -1.744405855999999963e-02 5.143175773649999449e-01 1.866450536599999904e-02 -5.377129786800000089e-02 1.571877867179999888e-01 1.157180020430000067e-01 5.178709275920000410e-01 2.090650800920000052e-01 1.658981796969999922e-01 -1.768116518379999891e-01 -2.311882576738999884e+00 -2.383390016367000097e+00 -1.760274664370000131e-01 1.677981996250000052e-01 1.019956919690000047e-01 -1.126249534080000059e+00 1.791102385589999901e-01 1.549705660890000058e-01 -2.544171594890000110e-01 2.143063946294999855e+00 -8.796265450860000223e-01 -1.192585587209999964e-01 1.123651190890000012e-01 9.350537004900000282e-02 -6.707611222679999985e-01 1.418086663589999963e-01
-5.729668960860000437e-01 2.445591009800000132e-02 -3.103972434699999935e-02 -9.720245978170000134e-01 -2.273909361249999983e-01 3.612411260199999835e-02 -8.971001788850000436e-01 1.243150398069999968e-01 -1.437047417289999962e-01 -9.986389534480000219e-01 3.737671567170000042e-01 2.717592387559999989e-01 4.056466424140000027e-01 -1.116313376790000061e-01 2.082317664299999926e-01 8.770658821800000338e-01 -2.620621098020000095e-01 -8.533175983400000109e-02 8.360581861420000038e-01 2.225078241039999960e-01 9.995071933499999339e-02 9.325939369900000386e-01 4.072999912990000193e-01 5.164780394699999833e-02 -6.570644931619999962e-01 -2.962618823900000087e-01 -2.648712515219999730e-01 3.072584706739999727e-01 8.678133330780000154e-01 -6.309394625049999927e-01 -1.538186224710000050e-01 -4.052666853269999980e-01 -6.523696762909999558e-01 8.461808965829999973e-01 1.238493571772999902e+00 -4.405709590019999955e-01 4.608300740910000193e-01 9.215561637119999983e-01 5.530762890100000134e-02 -8.367812503579999950e-01 -9.183821413289999791e-01 1.270302233629999888e-01 2.423206070729999884e-01 3.858884693549999856e-01 3.820011793010000267e-01 -7.314724131100000526e-02 3.334862394420000098e-01 -9.976756461589999514e-01 -2.441719607899999964e-02 -1.259569790950000046e-01 3.578677901819999896e-01 1.885131363466999943e+00 2.935370501600000070e-02 3.033286158899999863e-01 -4.636939960300000274e-02 1.195710716310000032e+00 1.612208869929999955e-01 7.759518375899999987e-02 -1.202956579299999974e-02 5.408521579920000377e-01 -9.540682295400000623e-02 -1.974123527300000042e-02 5.709093105999999730e-03 -7.273909982300000299e-02 -4.893950656300000146e-02 1.601141127690000054e-01 8.312641593599999490e-02 -3.496386134800000267e-02 8.048379791519999493e-01 -1.494408196238000031e+00 -1.230952747279999981e-01 2.025738539470000044e-01 -1.229206021979999952e-01 -2.726390308919000027e+00 1.245798648499999994e-01 -1.123150933429999943e-01 2.373362095400000094e-01 -1.379578807571000043e+00 -3.076202139529999879e-01 1.807233255719999931e-01 -1.175614691200000013e-02 3.706969658040000226e-01 -1.205903135173000074e+00 2.002396209149999995e-01 1.115339221550000065e-01 -1.828179763499999944e-02 -5.364990093170000085e-01 -4.670777621389999856e-01 1.174982377369999942e-01 1.167173000360000046e-01 1.599517094390000005e-01 3.163520216619999936e-01 1.343501446579999925e-01 2.624267330189999914e-01 1.729207397989999950e-01 -6.597970853529999680e-01 -7.378116046349999513e-01 2.647643757670000153e-01 1.697803326089999953e-01 3.134689979820000083e-01 5.471224495930000487e-01 3.645229880260000277e-01 2.357441503640000102e-01 2.274718759000000090e-01 4.327757122300000120e-02 2.062832440260000122e-01 -5.399234831000000040e-02 7.704471771699999971e-02 1.135168494079999979e-01 -5.224313215999999704e-02 1.810380198250000072e-01 2.023048162709999986e-01 -3.421951095049999836e-01 5.240818833829999912e-01 -4.739534160919999795e-01 -2.336644207269999995e-01 1.292894225719999901e-01 1.868465928199999904e-01 -9.704455883999999477e-01 6.552420659999999520e-04
-4.026073075339999807e-01 1.121700011879999959e-01 -5.096692803910000125e-01 -8.575554030280000406e-01 -2.466291790519999916e-01 2.814002036150000108e-01 -7.206734253190000272e-01 8.770442863300000058e-02 -4.652671205450000236e-01 -8.638791978009999761e-01 5.045246840629999951e-01 4.507495676950000196e-01 2.306375863419999894e-01 7.534161358799999764e-02 -2.075679189040000039e-01 8.136951489189999664e-01 -6.065116369500000298e-02 1.973665990100000045e-01 7.504680985749999644e-01 1.600276872300000069e-02 -2.692400157929999982e-01 8.486777329519999968e-01 2.555441716540000074e-01 3.152951036819999775e-01 -7.775251289639999452e-01 -6.680613152779999453e-01 1.286623371260000037e-01 4.228888822529999758e-01 8.397560565710000535e-01 -6.053723382169999834e-01 -2.164184262259999936e-01 -4.473017192400000064e-02 -3.475822955210000065e-01 -6.942068700510000134e-01 1.794077099536999897e+00 -6.586999987010000446e-01 2.944438269010000164e-01 1.019791940288000021e+00 1.647405715499999923e-02 -1.236541680905999918e+00 -7.956028586400000213e-01 -2.139540457390000094e-01 1.244485166520000047e-01 5.145861470860000342e-01 4.985441679450000052e-01 -3.015113541499999869e-02 4.683231678049999958e-01 -7.431040077010000466e-01 -1.548474815470000099e-01 -7.225967198200000663e-02 4.056375852256000059e+00 3.620079760881000031e+00 1.267863420620000126e-01 4.049665231530000242e-01 -8.876914914500000364e-02 1.893588435227999911e+00 2.402015079990000024e-01 1.611556136989999999e-01 3.337534176899999844e-02 -3.692671895585999842e+00 -4.532843507770000224e-01 -6.972204048499999751e-02 -1.698323042569999941e-01 -1.423854525100000101e-01 -7.632617509660000188e-01 1.661003176879999876e-01 1.080242914909999991e-01 -1.240746619540000067e-01 1.043842931184999934e+00 -1.651819425692000021e+00 -1.308086749719999942e-01 2.046995833699999934e-01 -2.706343716399999821e-01 -3.979317603833000039e+00 1.567008938259999984e-01 -1.917533913080000096e-01 3.352917953899999803e-01 -1.067353427792999909e+00 -3.619831897019999967e-01 2.482765698240000096e-01 -1.415366740260000089e-01 3.820994786779999819e-01 -7.146236073870000371e-01 2.166637592950000080e-01 1.581303516060000025e-01 2.287340867999999861e-02 5.868743078339999641e-01 -1.769057824422000103e+00 2.386272258559999915e-01 8.972633049599999799e-02 1.326243335600000017e-01 -1.647749321070000050e+00 1.335518751060000009e-01 2.771410070220000077e-01 3.261482374390000105e-01 -1.398372772986999912e+00 -5.952063692629999681e-01 3.722402263730000271e-01 1.189865526670000062e-01 2.570667439220000183e-01 -2.105574760689999936e-01 2.413131495259999981e-01 1.299882646859999991e-01 3.701885889289999731e-01 2.229592866891000114e+00 2.342080082170999944e+00 1.284110593159999980e-01 6.518277107000000278e-03 7.678958834700000402e-02 9.519418631639999795e-01 1.383079183529999923e-01 7.669354416300000477e-02 -4.593290806299999973e-01 -1.279366863459000081e+00 1.097549875689999982e-01 -3.165560201509999838e-01 3.842778110899999766e-02 1.624117408619999980e-01 -4.316365750810000068e-01 -1.917515044679999892e-01
-2.632516470119999896e-01 2.099305868399999886e-01 -3.829359002630000064e-01 -6.290903423870000122e-01 -6.483988540299999437e-02 -1.125005719010000044e-01 -3.603991426200000014e-01 2.842113729999999963e-02 -8.138178073000000567e-02 -4.879373015310000117e-01 3.416138192279999930e-01 -9.640999052500000277e-02 7.238131404599999763e-02 2.846892860690000138e-01 -1.947211001100000033e-02 6.044964483810000289e-01 2.198801493529999873e-01 -5.038957812199999775e-02 4.261951457529999931e-01 -3.078109395420000061e-01 1.639405434600000114e-02 4.805155040719999993e-01 -3.958749611899999715e-02 2.621193384099999857e-02 -7.715680656360000000e-01 -3.812251303120000046e-01 6.385918265919999781e-01 2.292788388969999869e-01 1.325152183530000083e-01 -7.526719525820000367e-01 4.846710148899999876e-02 9.491524198900000431e-02 6.178054063310000066e-01 -1.110805714819000034e+00 2.921519300599999952e-02 -1.308415217299999968e-02 -1.971596693919999976e-01 3.622903336350000170e-01 -4.000574301900000074e-01 -3.618670771600000086e-02 -5.377816892000000237e-01 -7.186887197499999824e-02 5.497960595000000311e-03 3.739148338039999797e-01 4.920240273209999793e-01 1.289527507919999982e-01 -1.067564205699999928e-02 -8.897598194129999749e-01 -2.224528332709999889e-01 -4.639214062600000021e-01 5.778657926679999779e-01 -1.506836575339999929e+00 5.270076309700000294e-02 2.671839021999999897e-01 2.022136416499999839e-02 -1.891988746176999969e+00 1.759767522959999886e-01 2.204461590579999963e-01 -3.392066170270000014e-01 -5.033534959950000109e-01 -1.682090932260000005e-01 -3.002303841899999978e-02 -2.562286073780000173e-01 -1.947889073040000030e-01 -7.552247248140000480e-01 1.469285306299999982e-01 6.300329904500000244e-02 -2.089266784659999932e-01 8.165991414499999823e-02 1.080780383025000013e+00 -1.629995664430000102e-01 -1.758646349499999942e-02 -7.049346227500000173e-02 2.898068353859999835e+00 8.534056210700000089e-02 -2.465097225350000032e-01 2.744035347179999973e-01 6.441650972970000000e-01 3.926922034109999737e-01 7.848823684200000039e-02 -1.546216201329999873e-01 3.521740673720000214e-01 3.840676502779999946e-01 1.969419953569999937e-01 9.495946509699999816e-02 1.068089381840000018e-01 9.618859290219999858e-01 1.411883568589999971e+00 1.074959378369999968e-01 4.228208940699999807e-02 1.977147729700000078e-01 -8.375664953179999817e-01 -4.597349091300000079e-02 2.826275437810000235e-01 3.041712823330000037e-01 -7.000612111409999505e-01 -2.053805650920000059e-01 3.857693197040000244e-01 -1.416626097929999939e-01 -3.784407124400000072e-02 -7.529248447470000549e-01 -4.490281281599999702e-02 -9.698600224700000549e-02 5.595966071100000327e-01 1.069116256737999926e+00 1.305232743589999911e-01 1.574494039940000090e-01 -2.303239225389999978e-01 1.699890238129999898e-01 -4.839808926499999941e-01 3.135812012599999837e-02 -1.427312141319999894e-01 -2.234278518570000094e-01 -7.376363305609999754e-01 3.150828759500000076e-01 -2.951209804239999790e-01 -9.771014311600000057e-02 2.074797311999999894e-02 4.008267977000000148e-01 -2.711393246589999806e-01
-1.770483424210000101e-01 1.771481926000000040e-02 -1.287657979580000001e-01 -4.856815081549999968e-01 -1.151098311610000008e-01 -6.416067050220000123e-01 -5.657951368599999781e-02 2.218200407689999987e-01 4.128479133010000135e-01 -2.635438672000000038e-01 3.717870854879999909e-01 -6.311850707839999908e-01 -2.608824418000000103e-03 1.422880069000000136e-01 3.303282672289999944e-01 4.752417671410000266e-01 1.548321460490000023e-01 -4.688525936860000187e-01 1.935565705960000105e-01 -2.483562605419999958e-01 3.417409121819999784e-01 2.838004195909999972e-01 3.004569489600000115e-02 -2.764734551149999886e-01 -4.324882801539999821e-01 2.897478894400000171e-01 2.568060506870000204e-01 -1.390305422899999928e-02 -8.488698761840000051e-01 -8.684354292689999699e-01 3.244773893460000114e-01 -6.764059901310000011e-01 7.247045690740000490e-01 -7.641080683419999575e-01 -4.398403627879999833e-01 7.764072171429999836e-01 -3.813999007489999871e-01 -1.742732326510000040e-01 -7.276239298490000396e-01 3.389270686640000196e-01 -2.284813377749999874e-01 4.006257106639999899e-01 -1.069327134029999932e-01 7.560627288099999732e-02 6.362936147619999705e-01 4.629659047340000111e-01 -4.483552589579999914e-01 -8.349306190109999637e-01 -2.928686447859999986e-01 -7.605218599759999698e-01 -2.360921916247999963e+00 -3.045545719949999786e+00 -1.103477811859999991e-01 2.349481621979999935e-01 1.590908987649999884e-01 -1.892107313941000069e+00 1.129721637490000014e-01 1.807921138080000045e-01 -7.025247990780000285e-01 2.631140147563999943e+00 9.005993517900000300e-02 1.040173409939999932e-01 -1.857428981969999893e-01 -1.283413410429999901e-01 3.118175623389999873e-01 2.105000991669999932e-01 3.088825208999999850e-02 -2.303194059860000087e-01 -1.110726327979999928e+00 1.901872954182999953e+00 -1.385744250339999983e-01 -1.274003774390000121e-01 8.661340155499999693e-02 4.065907955152000319e+00 6.007324242800000241e-02 -1.063283630560000054e-01 1.476695377580000135e-01 1.851594693532000013e+00 4.206008044549999769e-01 -2.044249584060000013e-01 -2.322387073000000118e-03 2.474272083999999872e-01 1.592145513450000105e-01 2.226887578020000091e-01 9.120103835999999325e-03 1.659226884220000031e-01 -1.794335604139999929e-01 1.710519008257999962e+00 -1.354333130740000002e-01 -4.898022812600000275e-02 2.378560172389999894e-01 2.710251403769999845e-01 -1.577776319449999964e-01 2.975807186889999900e-01 1.230830997899999973e-01 9.163948304889999452e-01 9.303871603799999945e-02 3.181292914200000155e-01 -4.302633461340000243e-01 -2.949156427960000215e-01 -2.099448247619999930e-01 -2.334538367279999915e-01 -2.065857140350000065e-01 6.415637684730000068e-01 -7.099634964990000352e-01 -1.333652476841999945e+00 1.237757473409999975e-01 -2.690379492650000204e-01 3.256142452199999870e-01 -1.173544600435999952e+00 -1.480968285779999949e-01 -2.699257314310000155e-01 2.843799299470000097e-01 7.511673878650000358e-01 5.729891163739999627e-01 -2.082626322009999975e-01 -1.280668695199999874e-01 -8.057490746600000364e-02 9.253494952290000075e-01 -2.011724849969999951e-01
-1.092712295970000025e-01 -2.947808384799999737e-01 -2.307151032670000101e-01 -4.165048201300000086e-01 -3.048380630110000267e-01 -6.912997385519999982e-01 8.955033157599999460e-02 4.872088228979999935e-01 4.770498756400000095e-01 -3.144653275220000155e-01 5.875284540490000040e-01 -5.962610489320000484e-01 -3.739351761200000041e-02 -1.662785248810000061e-01 1.715818961510000018e-01 4.128356012750000192e-01 -1.055842385580000042e-01 -4.403752186170000193e-01 1.007268280329999960e-01 1.343612610300000121e-01 7.500467988900000327e-02 3.117240762910000185e-01 3.136276934059999966e-01 -1.208257998360000030e-01 2.926707314999999789e-03 5.831320890660000034e-01 7.858722224799999378e-02 -2.275359550150000132e-01 -7.570295953290000490e-01 -8.486405580210000243e-01 1.696940024589999874e-01 -1.660539053067999982e+00 8.569609988259999644e-01 -4.704226184029999813e-01 -6.260089274569999862e-01 2.057569147999999959e-01 -1.926354107949999894e-01 -4.943015394179999800e-01 -3.481534651059999819e-01 1.602119606502999893e+00 -3.390332630319999874e-01 5.281042484810000159e-01 -4.867043951999999729e-02 -2.712881184140000235e-01 6.171836220740000156e-01 -1.665537151760000112e-01 5.528396830499999748e-01 -8.855983789000000661e-02 -3.300520809279999801e-01 -7.678609370079999552e-01 -1.382016509000000060e+00 1.539434951660000050e-01 -5.427368988299999947e-02 -6.141895252500000069e-02 1.813873344090000117e-01 2.107515540289000011e+00 2.603819782239999991e-01 -1.768570239130000110e-01 -7.334726871279999560e-01 1.167401706988000054e+00 -1.441102316899999999e-02 2.338988676909999898e-01 -1.095078650389999936e-01 9.074959393499999749e-02 1.182455249900999927e+00 3.299852786040000097e-01 6.013978720999999666e-02 -1.861872508669999982e-01 -8.964567986489999640e-01 3.918356607560000149e-01 -3.212425383399999945e-02 -5.286580119400000055e-02 7.602853361700000201e-02 -1.395375288340999997e+00 2.633687236619999816e-01 1.679425772370000125e-01 5.508277747499999710e-02 1.160264571556999913e+00 -2.088300798899999922e-01 -3.358013014210000091e-01 1.578527332999999921e-01 2.984204812400000073e-02 -3.761058255909999759e-01 1.625007295229999871e-01 6.571486060000000492e-04 9.708751023999999397e-02 -1.005507566477999992e+00 -1.709276637005999966e+00 -2.740930794629999889e-01 3.632213470999999874e-03 1.911718050979999972e-01 5.259216963289999880e-01 -4.234520230199999985e-02 1.816279056979999973e-01 -1.335081197859999957e-01 1.874866102866000084e+00 4.097160738789999979e-01 1.063167457669999955e-01 -4.332490124469999815e-01 -3.533398034390000109e-01 9.171451392120000268e-01 -3.194067077700000201e-01 -6.138653320200000013e-02 4.874215247120000094e-01 -9.938082799909999654e-01 -6.814652301279999769e-01 6.440608309799999986e-02 -1.786754590899999884e-02 4.053460631310000228e-01 -7.739823296000000394e-03 -2.320611191939999929e-01 -1.422399337920000062e-01 4.511627253050000119e-01 7.085175552839999558e-01 7.205817390840000281e-01 -8.422359241000000607e-02 -6.942808126299999938e-02 -8.923554016300000447e-02 5.133361471559999556e-01 -1.182308396060000044e-01
6.108370806300000150e-02 -3.971704012330000144e-01 -6.134792497819999690e-01 -2.387795345750000076e-01 -2.868544159249999947e-01 -2.553547538639999726e-01 1.326855330570000102e-01 4.788281846210000192e-01 1.278247320199999981e-01 -3.789188074359999825e-01 5.769615772420000344e-01 -1.629137099550000134e-01 -1.287298186780000131e-01 -1.736289023279999899e-01 -2.928521408190000175e-01 1.720338074489999869e-01 -9.849280351099999609e-02 -6.498665806700000547e-02 7.347632796399999888e-02 1.957542876080000105e-01 -5.299811059700000326e-01 2.827698553920000024e-01 2.718637258420000258e-01 3.047645194429999815e-01 2.637767675380000010e-01 2.971089939450000106e-01 1.631031831320000069e-01 -4.495425102560000052e-01 -2.827659638200000214e-01 -1.051318796090000007e-01 -1.172487941909999970e-01 -1.077773353411999979e+00 1.123741841665000019e+00 2.116698564900000024e-01 1.125249871172000038e+00 -1.312175994331999940e+00 -2.569600784899999865e-02 -3.285740229069999963e-01 2.256169085938000141e+00 1.345947599925999993e+00 -8.949198081810000316e-01 -2.764066126370000043e-01 -1.129691074309999987e-01 -3.748153062519999912e-01 2.275135163789999970e-01 -3.758723377770000207e-01 6.367271877119999868e-01 1.372044256889999869e-01 -4.099162256200000187e-01 -4.956969959010000260e-01 8.521796935409999829e-01 1.892075124198999925e+00 4.147181477999999782e-02 -2.165776166679999892e-01 5.738830619299999797e-02 2.502344466394000211e+00 3.275401560680000212e-01 -3.635998687809999796e-01 -4.116748093350000026e-01 -1.252945843158999928e+00 -7.135946675899999814e-02 2.763098803469999920e-01 -1.726850412419999869e-01 2.181345986800000136e-01 4.917214102399999898e-01 2.649151990720000072e-01 1.115899607250000064e-01 -1.088097482870000049e-01 9.190039997419999773e-01 -1.524977288647999973e+00 1.552980829650000005e-01 1.681003378450000030e-01 1.042113861410000064e-01 -4.431030294576999928e+00 6.088072854010000423e-01 4.271168664910000023e-01 -5.283400559399999835e-02 -2.201236098999999946e+00 -4.369945283660000013e-01 -3.457168210189999757e-01 1.464800608569999940e-01 -1.687058159529999934e-01 -4.480634397000000414e-03 -9.560696200300000669e-02 -2.225261988040000138e-01 2.761859235140000091e-01 9.770694857000000386e-03 -1.944908465849999990e+00 -1.780908919779999877e-01 2.727529728029999823e-01 1.164022854559999959e-01 5.221507060259999999e-01 -6.452436677099999962e-02 -8.267606849999999466e-03 -2.047602130329999881e-01 5.598875416699999885e-01 6.517760776100000042e-01 -2.490695849400000050e-02 -5.944423973699999864e-02 -2.621527575590000270e-01 6.580703386099999719e-01 -3.696456863179999885e-01 1.224595084200000017e-01 2.424522571349999878e-01 -8.416984417700000554e-02 4.093953603680000053e-01 3.883943424399999983e-02 2.641336249549999793e-01 2.644378333519999957e-01 1.083071058268000098e+00 -9.036499474600000192e-02 1.234828820949999961e-01 2.711382424520000223e-01 -5.016021808639999913e-01 1.646069733930000112e-01 -1.473002212299999968e-02 -7.178141275699999324e-02 3.464452238099999942e-02 4.617892919000000235e-02 5.997352139900000156e-02
2.513111527899999920e-01 -2.156189874889999913e-01 -8.298483252760000539e-01 9.629847226200000110e-02 -1.392797806689999862e-01 1.172589209780000030e-01 1.291225347559999959e-01 2.098191559929999950e-01 -1.945409005800000091e-02 -2.087727850680000108e-01 4.513483211089999725e-01 -1.915670707399999909e-02 -1.828776858020000062e-01 1.172093904599999931e-01 -5.171407010599999854e-01 -3.024671974420000131e-01 7.543102270599999493e-02 2.505548810800000137e-01 2.063617247350000017e-01 -2.134064403279999911e-01 -7.609241724180000332e-01 -2.711290740899999913e-02 1.189908663799999974e-02 5.083271022069999479e-01 4.212017942929999759e-01 5.445666013900000296e-02 -2.356401061279999876e-01 -4.094921628409999848e-01 -1.930855761470000043e-01 1.940670973808999999e+00 -2.060441827660000058e-01 3.967152191999999931e-03 4.490567228719999915e-01 3.198070417969999801e-01 4.587154369359999762e-01 -3.444209548919999753e-01 -1.531084932829999967e-01 -3.184406553900000214e-02 2.094755468424000178e+00 2.477208371500000117e-01 -4.885014131489999745e-01 -9.848334787960000281e-01 -1.092781765229999952e-01 -3.554053788259999846e-01 -3.946951841999999863e-03 -7.832830268370000182e-01 1.337192110868999917e+00 3.208611915049999763e-01 -3.931812383359999941e-01 -1.690368341579999989e-01 1.378747616242000040e+00 7.486231507430000098e-01 7.672409254699999459e-02 -5.225378202399999505e-01 -2.205898064550000093e-01 -1.822805238816000095e+00 -6.693950631499999415e-02 -3.528804372359999886e-01 -1.677530141839999878e-01 -1.449112629934999896e+00 2.521793083910000011e-01 2.359856859109999982e-01 -1.231929904599999986e-01 1.494612287369999903e-01 -1.083807543225000058e+00 9.896383691200000277e-02 7.628163764499999722e-02 1.126968655980000039e-01 1.530215587869000027e+00 -1.006929218802000037e+00 1.939355278949999872e-01 -5.987273567100000193e-02 5.650250737399999806e-02 -3.661172876970000267e-01 -8.291411593000000066e-03 4.092247337700000154e-01 -1.372005827180000082e-01 -1.928270152070999943e+00 3.532924186709999748e-01 -3.070728957080000043e-01 8.877397645800000348e-02 -1.637402823909999972e-01 8.027638576540000459e-01 -2.158922615430000080e-01 -4.141441210669999928e-01 4.244326974709999867e-01 1.189108191974000084e+00 1.442052071533999946e+00 5.811953839899999807e-02 4.680729352560000223e-01 1.585110311000000093e-03 4.813780373089999731e-01 -4.115556710630000059e-01 -3.270983424139999873e-01 -6.274361058999999852e-02 -2.336822681671999913e+00 2.987043742459999929e-01 -2.891926585800000046e-02 3.714501039440000207e-01 -4.055054711899999664e-02 -3.634101974939999979e-01 -1.906009276310000056e-01 1.581904736189999883e-01 3.549733092900000248e-02 7.242588538069999471e-01 2.249647594539999906e-01 3.607764648200000035e-02 1.257439361940000111e-01 -6.922688366000000031e-03 5.604883347969999985e-01 4.469080408799999682e-02 2.928507982890000139e-01 2.984641689470000081e-01 -1.017772381647999991e+00 -9.254449559649999824e-01 3.910378910400000296e-02 4.162747055200000101e-02 9.818212555300000199e-02 7.030220250999999476e-02 3.030880832130000146e-01
4.199861441009999918e-01 -9.184777748099999528e-02 -6.010762651309999871e-01 4.266919962840000080e-01 -1.200435794740000034e-01 -1.345188861899999921e-02 3.198466938160000050e-01 5.474358345600000009e-02 4.987953728210000048e-01 -9.925055420599999956e-02 4.428380244980000269e-01 -3.147686228559999910e-01 -1.983810640700000016e-01 1.188760377419999931e-01 -2.513855828400000103e-01 -6.587392631339999971e-01 7.132549582599999327e-02 2.036299694370000135e-01 4.353685754639999850e-01 -3.946897290679999837e-01 -4.656665688830000094e-01 -2.698506766300000081e-01 -1.265622410039999868e-01 4.027459228629999832e-01 4.703556597810000239e-01 -6.391369091300000416e-02 -7.880127805890000392e-01 -5.056927694749999702e-01 7.190187304999999529e-02 1.234249258856999987e+00 -3.117886976379999897e-01 1.723427914940000027e-01 -6.676537974389999963e-01 -9.745814163900000382e-02 3.817832319550000242e-01 2.333953585034000078e+00 1.171318330270000041e-01 2.079011979070000127e-01 -7.050263854770000282e-01 -3.838704018000000003e-03 7.223829386869999869e-01 -4.573260460999999805e-02 -1.723924381700000022e-02 -3.204285461940000190e-01 -2.023692243100000052e-02 -8.879694843330000475e-01 4.730602317170000126e-01 4.997510554460000143e-01 -9.589556966199999644e-02 8.556912863099999655e-02 -1.505564183130000122e-01 -2.445436307359999950e-01 -4.133663790099999930e-02 -6.963630928049999724e-01 -3.234141721989999829e-01 -3.095140454401000163e+00 -5.735668594439999879e-01 -4.846267370680000242e-01 2.049884935699999855e-02 4.175933662660000212e-01 3.472267071680000261e-01 2.809762177330000221e-01 2.100870583220000032e-01 7.895470171400000015e-02 -1.333953293286999964e+00 -8.378799510100000403e-02 -1.993617384100000028e-02 1.608144801960000037e-01 -5.879991541610000150e-01 1.916256713760000063e-01 1.131038914869999940e-01 -4.600797942900000104e-01 -2.239248045999999923e-02 2.540698062656999934e+00 -2.730773179200000067e-01 3.503719215900000239e-02 -4.231007033920000104e-01 1.632915266289000078e+00 5.856959281560000230e-01 -2.007387499470000003e-01 1.489428307590000000e-01 8.627019192000000627e-03 4.095995374670000078e-01 -6.771411661500000012e-02 -1.481377300560000054e-01 2.086728188549999974e-01 9.551942785299999406e-02 2.404412373951000159e+00 7.391201517699999557e-02 2.336888615559999938e-01 -7.212410056500000166e-02 -9.304329594799999603e-02 -6.312757046000000427e-01 -1.086574191389999972e-01 -3.063191909899999968e-02 -1.490694351599000100e+00 -3.665043705820000275e-01 -1.545524774499999927e-02 3.746119495849999925e-01 1.948770935220000000e-01 -6.527155159120000549e-01 2.012490673690000009e-01 -3.311628146799999728e-02 -8.176254669200000436e-02 5.039056160779999960e-01 7.130428484999999650e-02 -9.210966734099999831e-02 -2.395828511080000112e-01 -1.713815942459999964e-01 -6.581965970099999674e-02 -8.618110797999999420e-03 2.314972042289999976e-01 6.359910397050000386e-01 -2.358060826299999968e-01 -1.011550786828999904e+00 1.518808634959999959e-01 2.462754093420000123e-01 -1.861494329789999957e-01 -1.555790555949999876e-01 1.342192503830000050e-01