6.954145726727900545e+00 3.865828110267086060e-02 1.163112471362838657e-01 3.865828110267086060e-02 7.463487689635934785e+00 -8.251608188604753202e-01 1.163112471362838657e-01 -8.251608188604753202e-01 9.196847576932409396e+00
1.371826653372273697e+01 -4.004370094115070056e-01 -5.136498818617953738e-02 -4.004370094115070056e-01 1.399888936764978631e+01 -4.514354675808070483e-01 -5.136498818617953738e-02 -4.514354675808070483e-01 1.082081381425505562e+01
1.511954321889145625e+01 -6.656534762848174136e-01 -2.207326317852410791e-01 -6.656534762848174136e-01 1.579834941691871464e+01 -2.422458664744805978e-01 -2.207326317852410791e-01 -2.422458664744805978e-01 1.590491127330497712e+01
-3.822694805966852627e+00 -7.871080611642069513e-01 -9.737317352251231295e-01 -7.871080611642069513e-01 7.609795928186039449e-01 2.380120102866228882e-01 -9.737317352251231295e-01 2.380120102866228882e-01 -4.494798064490436729e-01
-1.379242758732869589e+01 -6.163564054654102620e-01 -1.090048351739917321e+00 -6.163564054654102620e-01 -6.150103376940434075e+00 2.434358833333817584e-01 -1.090048351739917321e+00 2.434358833333817584e-01 -1.206385936851602381e+01
-1.467105398281469242e+01 -4.020309507457350273e-01 -6.487479733916627911e-01 -4.020309507457350273e-01 -5.141595657918409223e+00 -1.905512100910267681e-01 -6.487479733916627911e-01 -1.905512100910267681e-01 -1.550428053694774988e+01
-1.205654044541176617e+01 -5.376220198160895913e-01 -9.347101214365980404e-01 -5.376220198160895913e-01 -4.686026129001876761e+00 -1.191967427039308136e+00 -9.347101214365980404e-01 -1.191967427039308136e+00 -1.106831699811305469e+01
-1.636565080827230645e+01 -9.184439662681980199e-01 -7.320223448549916245e-01 -9.184439662681980199e-01 -1.646267277169846110e+01 -1.394851488511480664e+00 -7.320223448549916245e-01 -1.394851488511480664e+00 -7.607919396015891067e+00
-1.769197619862374538e+01 -1.154354135604365394e+00 3.596585617811055569e-01 -1.154354135604365394e+00 -1.843741709698812059e+01 -6.029316197040027747e-01 3.596585617811055569e-01 -6.029316197040027747e-01 -1.018705675767655627e+01
-1.105210506916416335e+01 -9.792765046431161080e-01 1.156208207629823903e+00 -9.792765046431161080e-01 -1.117322664912313002e+01 5.340774184850144435e-01 1.156208207629823903e+00 5.340774184850144435e-01 -6.548650651823876956e+00
-2.165221050362940769e+00 -3.863849956023943100e-01 1.385413684170583304e+00 -3.863849956023943100e-01 -1.215198038868642860e-01 1.068281718292707176e-02 1.385413684170583304e+00 1.068281718292707176e-02 -1.527245839308088771e+00
1.425591099448055288e-01 -6.276126113287644470e-01 5.332909656455131486e-01 -6.276126113287644470e-01 1.362053282060787129e+00 -1.420092967773086468e+00 5.332909656455131486e-01 -1.420092967773086468e+00 4.655956171750336381e+00
4.154756772937105325e+00 -1.223923812076012974e+00 1.015077782979990406e+00 -1.223923812076012974e+00 7.804554287769285281e+00 -1.443869480055576693e+00 1.015077782979990406e+00 -1.443869480055576693e+00 5.057164280811090151e+00
1.010633939327977160e+01 -8.910527129264647073e-01 1.582872866005231804e+00 -8.910527129264647073e-01 1.209143123303826606e+01 -5.926505888334425709e-01 1.582872866005231804e+00 -5.926505888334425709e-01 5.314842530980439683e+00
1.276254809383659428e+01 -6.681598362634609822e-01 1.130097341683281131e+00 -6.681598362634609822e-01 1.585159527351471098e+01 -5.144434303020358756e-01 1.130097341683281131e+00 -5.144434303020358756e-01 5.595574705717971220e+00
6.155060406902572723e+00 -1.122722291328262179e+00 2.238353307011323179e-01 -1.122722291328262179e+00 8.480502170783893234e+00 -1.079700349759578959e+00 2.238353307011323179e-01 -1.079700349759578959e+00 3.378519465458121651e+00
3.835571486591383694e-01 -1.246756435618614267e+00 -5.198176646590633165e-01 -1.246756435618614267e+00 -1.780843266569344330e+00 -6.188226741988021029e-01 -5.198176646590633165e-01 -6.188226741988021029e-01 1.227545218296295593e+00
-2.551917531449084287e+00 -1.190627099637785236e+00 -9.020630611709365976e-01 -1.190627099637785236e+00 -1.092116294183066660e+00 -4.669546751050252520e-01 -9.020630611709365976e-01 -4.669546751050252520e-01 -2.947040367170262964e+00
-2.285667822167098961e+00 -9.891676535664691849e-01 -1.299553742902717302e+00 -9.891676535664691849e-01 1.622828216015474334e+00 -4.429787543908739189e-01 -1.299553742902717302e+00 -4.429787543908739189e-01 -6.586366221299931212e+00
-5.770119845918995516e+00 -7.879998465416990783e-01 -2.253919083477517571e+00 -7.879998465416990783e-01 -1.047015630156659993e+00 -6.628636212945098194e-01 -2.253919083477517571e+00 -6.628636212945098194e-01 -1.013321847253489061e+01
-8.998632488917747807e+00 -7.334279500437800303e-01 -3.162330470213958300e+00 -7.334279500437800303e-01 -7.798577184810530305e+00 -9.058940884132100635e-01 -3.162330470213958300e+00 -9.058940884132100635e-01 -1.101624384778562771e+01
-5.653592485388837297e+00 -9.192754968069329902e-01 -3.437421863354586105e+00 -9.192754968069329902e-01 -1.110826339658160578e+01 -8.188389899146062412e-01 -3.437421863354586105e+00 -8.188389899146062412e-01 -1.037018533847992252e+01
-7.427475195802271113e-01 -7.423430724058257546e-01 -2.878683793627828891e+00 -7.423430724058257546e-01 -4.932139941923212589e+00 -1.536539116174532316e+00 -2.878683793627828891e+00 -1.536539116174532316e+00 -8.650877112910908551e+00
2.780022899824256655e+00 -7.383030256708402739e-01 -1.850309137550517180e+00 -7.383030256708402739e-01 2.718264050200886461e-01 -1.956607301265030241e+00 -1.850309137550517180e+00 -1.956607301265030241e+00 -6.936926891043974308e+00
5.028137978611339598e+00 -8.104244094920244335e-01 -1.157579441437281087e+00 -8.104244094920244335e-01 9.252551474789548758e-01 -1.252857708321979180e+00 -1.157579441437281087e+00 -1.252857708321979180e+00 -4.850092898619183579e+00
9.326796418865036742e+00 -4.323302750747486933e-01 -6.765321116205131879e-01 -4.323302750747486933e-01 3.002683735463874459e+00 -3.426989775561080642e-01 -6.765321116205131879e-01 -3.426989775561080642e-01 -3.877139781006376518e-02
1.354619614911408654e+01 -2.203970686021691494e-01 -1.932934510193180522e-01 -2.203970686021691494e-01 5.118823850991181423e+00 7.557040946684036309e-02 -1.932934510193180522e-01 7.557040946684036309e-02 1.857422959165069054e+00
1.254403899614672113e+01 -3.431628129751493894e-01 2.802801010484342603e-01 -3.431628129751493894e-01 2.863709443570947144e+00 -7.225511874228780496e-01 2.802801010484342603e-01 -7.225511874228780496e-01 2.322339547635121626e+00
4.161672816544165876e+00 -4.193331722428493835e-01 2.316939709853232665e-01 -4.193331722428493835e-01 -7.106141852576663975e-01 -1.595574085749162485e+00 2.316939709853232665e-01 -1.595574085749162485e+00 1.812058507769939153e+00
-3.806162154095540373e+00 -7.409867595971662002e-01 -7.712394841581987626e-02 -7.409867595971662002e-01 -2.958002784528741547e+00 -9.908977151535284245e-01 -7.712394841581987626e-02 -9.908977151535284245e-01 1.041338829110881159e+00
-6.007140782207280871e+00 -1.101598300857110635e+00 -1.113664888445859702e-01 -1.101598300857110635e+00 2.108785250016249169e+00 -3.512318742797065352e-01 -1.113664888445859702e-01 -3.512318742797065352e-01 8.557286589385221243e-01
-4.497703417109790713e+00 -1.501092210667640980e+00 8.595724840052007890e-03 -1.501092210667640980e+00 9.928761073457526010e+00 -2.160323511204529645e-01 8.595724840052007890e-03 -2.160323511204529645e-01 -4.042136076236965692e-01
-4.196080998280568686e+00 -2.021950892199634975e+00 7.370778154354775680e-01 -2.021950892199634975e+00 4.691225406010866905e+00 -7.659009168930103195e-01 7.370778154354775680e-01 -7.659009168930103195e-01 -3.957330398758280410e+00
-8.718168304647619493e+00 -1.630335639585688945e+00 1.091138017069718913e+00 -1.630335639585688945e+00 -2.527417320775388720e+00 -1.866289093360271156e+00 1.091138017069718913e+00 -1.866289093360271156e+00 -7.505986787785503545e+00
-1.268295552038501128e+01 -1.074704009972190955e+00 6.940754434524989414e-01 -1.074704009972190955e+00 -4.749973672102836275e+00 -1.881765833914492481e+00 6.940754434524989414e-01 -1.881765833914492481e+00 -7.392585607474923215e+00
-1.194208420273823990e+01 -1.240415623788251986e+00 7.017262310874741171e-01 -1.240415623788251986e+00 3.980443727944678600e-01 -1.099196266501256902e+00 7.017262310874741171e-01 -1.099196266501256902e+00 -4.506860322661327523e+00
-9.133904546180103168e+00 -1.438982460355920479e+00 1.434883407950821033e+00 -1.438982460355920479e+00 7.756095745185134227e+00 -1.906054672729707300e-01 1.434883407950821033e+00 -1.906054672729707300e-01 -2.379852391404640444e-01
-4.056105232498738999e+00 -1.396174015468091278e+00 2.080288379910856023e+00 -1.396174015468091278e+00 4.908256876382329104e+00 3.775975275681806576e-01 2.080288379910856023e+00 3.775975275681806576e-01 2.221494638446103731e-01
-2.114433083382742051e+00 -1.726541125469157167e+00 1.640464369328281435e+00 -1.726541125469157167e+00 7.858069985699368543e-01 5.300264155041097824e-01 1.640464369328281435e+00 5.300264155041097824e-01 -1.551594134481356635e+00
1.093575371852103295e+00 -2.514173448819166712e+00 6.148167303929367167e-01 -2.514173448819166712e+00 -6.696122905529917901e-02 2.764089303069584558e-01 6.148167303929367167e-01 2.764089303069584558e-01 -1.941096475110205333e+00
5.876084558174246020e+00 -2.320716851676020820e+00 4.706593188286467555e-01 -2.320716851676020820e+00 2.544659604602562464e+00 -8.900592254141175275e-01 4.706593188286467555e-01 -8.900592254141175275e-01 -1.117083760855002827e+00
7.309260413093578990e+00 -1.260188097765993609e+00 9.282371555897500626e-01 -1.260188097765993609e+00 7.086665058715983179e+00 -1.723439057925470586e+00 9.282371555897500626e-01 -1.723439057925470586e+00 2.649005511375425836e+00
4.798344724484610246e+00 -4.328228780294410272e-01 1.068028073569611047e+00 -4.328228780294410272e-01 4.618849732341610448e+00 -1.460030100415790066e+00 1.068028073569611047e+00 -1.460030100415790066e+00 4.412930470407538941e+00
1.457622572951410067e+00 -1.008126913924574763e+00 1.350254193188320295e+00 -1.008126913924574763e+00 -4.865101404341258540e-02 -1.018382082578634718e+00 1.350254193188320295e+00 -1.018382082578634718e+00 3.281082578218518009e+00
-1.673832575828018587e+00 -2.426360412739661854e+00 2.372680371255863285e+00 -2.426360412739661854e+00 2.056267139797211541e-01 -1.035421870475404793e+00 2.372680371255863285e+00 -1.035421870475404793e+00 -3.363706882492016437e+00
-7.159976647239037817e+00 -2.932366237441762724e+00 2.921293587790509516e+00 -2.932366237441762724e+00 8.550649232987408421e-01 -1.191323965601997603e+00 2.921293587790509516e+00 -1.191323965601997603e+00 -9.218181056642624327e+00
-1.049960164204837909e+01 -2.887091944413833655e+00 2.509821803557075182e+00 -2.887091944413833655e+00 -3.238817600263706353e+00 -8.556473041093982657e-01 2.509821803557075182e+00 -8.556473041093982657e-01 -1.302485834163300815e+01
-1.111157295686711599e+01 -2.737741826082959129e+00 2.063948615278897059e+00 -2.737741826082959129e+00 -8.163494364402447800e+00 1.641732421857299284e-01 2.063948615278897059e+00 1.641732421857299284e-01 -1.239995135410980609e+01
-8.184153893860241169e+00 -3.070941358059240844e+00 1.273676752161449599e+00 -3.070941358059240844e+00 -7.529441860152406463e+00 7.840715188354155929e-01 1.273676752161449599e+00 7.840715188354155929e-01 -8.235447521910224111e+00
-4.041561865785809005e+00 -3.062280431527269808e+00 4.750189194859243957e-01 -3.062280431527269808e+00 -3.731559020199978871e+00 3.448475389475185726e-01 4.750189194859243957e-01 3.448475389475185726e-01 -5.652748075322197252e+00
-2.974266290173963156e+00 -1.105348330563054260e+00 4.759230072401657297e-01 -1.105348330563054260e+00 8.809679682341246820e-02 -8.066958426060861775e-01 4.759230072401657297e-01 -8.066958426060861775e-01 -1.612689835235066926e+00
-4.952192108270618842e-01 -2.465778824666075286e-01 9.714137521521607477e-01 -2.465778824666075286e-01 1.103516386732448451e+00 -1.019034420676843355e+00 9.714137521521607477e-01 -1.019034420676843355e+00 5.401908508747653492e+00
5.620431522224585308e+00 -1.034016049984658236e+00 1.731363626501492670e+00 -1.034016049984658236e+00 4.102866108468791850e+00 -8.125607299410092521e-01 1.731363626501492670e+00 -8.125607299410092521e-01 1.073064848873221955e+01
8.333451380138697573e+00 -1.619810654297202834e+00 1.725268172458965354e+00 -1.619810654297202834e+00 3.506580574948500839e+00 -7.975035019366965017e-01 1.725268172458965354e+00 -7.975035019366965017e-01 1.097288842310954138e+01
4.877401169155689331e+00 -6.000207231426168963e-01 8.320081173040503320e-01 -6.000207231426168963e-01 -2.286737261224211504e-02 -5.921695165719192966e-01 8.320081173040503320e-01 -5.921695165719192966e-01 6.326331106002275106e+00
-1.319141170979700517e+00 1.163889328810662899e-01 1.057901263158724792e+00 1.163889328810662899e-01 -2.954400959000269999e+00 -2.654173875375648306e-01 1.057901263158724792e+00 -2.654173875375648306e-01 2.796056184668901601e+00
-3.406350459435771416e+00 8.062686260882915290e-01 2.254711174162109977e+00 8.062686260882915290e-01 -2.242425404165445890e+00 -5.482601288363110614e-02 2.254711174162109977e+00 -5.482601288363110614e-02 2.961209959522703272e+00
-3.641537901023313428e-01 1.156463822155046506e+00 2.944699841175929311e+00 1.156463822155046506e+00 2.417546683770972926e+00 1.984615592765780479e-01 2.944699841175929311e+00 1.984615592765780479e-01 3.354602058856085645e+00
-2.598170291060767578e+00 7.011712125769419268e-01 2.197169710625391570e+00 7.011712125769419268e-01 -2.293509551330096041e+00 3.195443440101174426e-01 2.197169710625391570e+00 3.195443440101174426e-01 -1.868830597358811740e+00
-7.272644244993951013e+00 7.809792275007403362e-01 6.556474077050582494e-01 7.809792275007403362e-01 -5.928104226431379686e+00 -2.169283974152865224e-01 6.556474077050582494e-01 -2.169283974152865224e-01 -9.528820097556009117e+00
-9.814317781295162746e+00 7.249023495683115659e-01 -1.419244605090476952e-01 7.249023495683115659e-01 -7.332648463321290500e+00 -9.562544576524697471e-01 -1.419244605090476952e-01 -9.562544576524697471e-01 -9.955757713239965057e+00
-7.545773364708399100e+00 3.588938354459597635e-01 2.450590446042801573e-01 3.588938354459597635e-01 -1.671510139691266827e+00 -8.846971647949649631e-01 2.450590446042801573e-01 -8.846971647949649631e-01 -7.084586066300869511e+00
-4.904338383771774446e+00 5.332444008832631921e-01 1.395298792395847753e+00 5.332444008832631921e-01 3.324720883816547179e+00 -3.358033385132876969e-01 1.395298792395847753e+00 -3.358033385132876969e-01 -8.052972784619781166e+00
-4.102494063928709522e+00 4.188636153955154207e-01 1.734296458086788117e+00 4.188636153955154207e-01 3.446421657008405859e+00 -6.350011528352499379e-01 1.734296458086788117e+00 -6.350011528352499379e-01 -6.543480615997850691e+00
-2.782627237883013027e+00 -3.590086927596540800e-01 1.012492444048465279e+00 -3.590086927596540800e-01 4.961368568436030912e+00 -5.172650924804864658e-01 1.012492444048465279e+00 -5.172650924804864658e-01 -5.396248748151563746e+00
1.814674072737224808e+00 -1.098930860585727753e+00 2.049138587954191515e-01 -1.098930860585727753e+00 8.258263129708412364e+00 2.184666820919042851e-01 2.049138587954191515e-01 2.184666820919042851e-01 -6.997819358640153253e-02
6.078172734689538892e+00 -1.403622380206483111e+00 1.237904969803659549e-01 -1.403622380206483111e+00 1.192835600061046186e+01 5.763983715104078476e-01 1.237904969803659549e-01 5.763983715104078476e-01 2.191568633147444434e+00
6.318449625185300178e+00 -9.751267711231328406e-01 1.958968058002890367e-01 -9.751267711231328406e-01 7.011830903648772484e+00 4.210352653737598483e-01 1.958968058002890367e-01 4.210352653737598483e-01 -5.430810071924719457e-02
3.824074888980243170e+00 -1.243549331041769040e-01 6.366267793616648962e-01 -1.243549331041769040e-01 2.157815284316984439e+00 4.570206126317195583e-01 6.366267793616648962e-01 4.570206126317195583e-01 -1.646417427692505875e+00
4.151550121295517926e+00 5.190258604507358431e-01 1.453664065085507495e+00 5.190258604507358431e-01 9.369578986412805399e-01 3.644022649485470500e-01 1.453664065085507495e+00 3.644022649485470500e-01 -1.439603791318506243e+00
3.926114556092150654e+00 3.534000516328826835e-01 1.648780239890216492e+00 3.534000516328826835e-01 -9.415922386546209388e-01 1.747004017838918732e-01 1.648780239890216492e+00 1.747004017838918732e-01 -8.692969460233083145e-01
-5.329568392997310333e-01 6.087538731603450715e-02 1.867746434004338374e+00 6.087538731603450715e-02 -5.133342877195919307e+00 -4.571496411391350878e-01 1.867746434004338374e+00 -4.571496411391350878e-01 -5.290033491359878326e+00
-2.600793402760084749e+00 -1.744668506780523709e-01 2.532706324206457360e+00 -1.744668506780523709e-01 -4.527376817312287471e+00 -1.083102753924124029e+00 2.532706324206457360e+00 -1.083102753924124029e+00 -7.309385948280775480e+00
-5.617107917210374168e+00 -7.200945495306039223e-01 3.027531207027396309e+00 -7.200945495306039223e-01 -2.258345333939302702e+00 -1.008692695479082690e+00 3.027531207027396309e+00 -1.008692695479082690e+00 -5.391040632795134790e+00
-4.642060449810791134e+00 -1.158764994146082028e+00 2.727231439741515828e+00 -1.158764994146082028e+00 -2.160653808739229742e+00 -1.033059546636726722e+00 2.727231439741515828e+00 -1.033059546636726722e+00 -3.840546715151096357e+00
-5.314917708519840467e+00 -1.327139139784577759e+00 1.630812565678807502e+00 -1.327139139784577759e+00 -4.505438893664200251e+00 -1.054297835752566748e+00 1.630812565678807502e+00 -1.054297835752566748e+00 -6.271890930749688842e+00
-3.454109533888561234e+00 -1.509771717568262783e+00 6.662604047138537267e-02 -1.509771717568262783e+00 -6.474712943280812816e+00 -8.476710457811488242e-01 6.662604047138537267e-02 -8.476710457811488242e-01 -5.459756630274806177e+00
-8.322287514085858762e-01 -2.103966659248145188e+00 -8.637219792818611186e-01 -2.103966659248145188e+00 -5.642525546597286557e+00 -4.746330123196981776e-01 -8.637219792818611186e-01 -4.746330123196981776e-01 -1.696863853594708482e+00
2.855836306173632710e+00 -2.623831507399178253e+00 -1.132120971982076840e+00 -2.623831507399178253e+00 -1.673330859717609559e-02 1.819889877386485222e-01 -1.132120971982076840e+00 1.819889877386485222e-01 6.778787438383822028e+00
2.461012365547404546e+00 -2.233075768788264082e+00 -1.451636928832058970e+00 -2.233075768788264082e+00 2.743308672945612425e+00 8.672582573655429616e-01 -1.451636928832058970e+00 8.672582573655429616e-01 8.419700213379163856e+00
2.390042001536470284e+00 -1.599861478532532466e+00 -1.593608841121570530e+00 -1.599861478532532466e+00 3.810593119754519975e+00 1.038063548874903930e+00 -1.593608841121570530e+00 1.038063548874903930e+00 5.557637040785859739e+00
3.777775208929612827e+00 -1.639658027604207424e+00 -1.008117549630320076e+00 -1.639658027604207424e+00 8.480649404002200686e-01 8.450812854999365520e-01 -1.008117549630320076e+00 8.450812854999365520e-01 6.278563363064947112e+00
6.861367302851818728e+00 -1.708760930087349417e+00 -6.687403580830734162e-01 -1.708760930087349417e+00 5.197826215495244817e-01 8.282585260575336950e-01 -6.687403580830734162e-01 8.282585260575336950e-01 5.648179515341415602e+00
5.559628020614903576e+00 -1.597857134912273880e+00 -1.008583511855524195e+00 -1.597857134912273880e+00 -1.659181602032316905e+00 8.534076618731908370e-01 -1.008583511855524195e+00 8.534076618731908370e-01 4.166946654413915319e+00
1.301389377107420975e+00 -1.697269716173353871e+00 -1.351616784187136266e+00 -1.697269716173353871e+00 -6.532593253903186792e+00 2.801630834897380629e-01 -1.351616784187136266e+00 2.801630834897380629e-01 -3.111662086249215586e-01
-2.219103944482017088e+00 -1.884260891046976027e+00 -1.680021680249699223e+00 -1.884260891046976027e+00 -8.164874307727414404e+00 -3.971072540482787905e-01 -1.680021680249699223e+00 -3.971072540482787905e-01 -2.368019967469694453e-01
-4.206180800428709787e+00 -1.865470468882102884e+00 -2.045618982333248237e+00 -1.865470468882102884e+00 -7.249929483284900833e+00 -1.977107563953790226e-01 -2.045618982333248237e+00 -1.977107563953790226e-01 1.921853334555864601e+00
-5.682937897767754265e+00 -1.757593095713605669e+00 -2.002495673148016131e+00 -1.757593095713605669e+00 -7.636781187049479946e+00 6.978906697354670952e-01 -2.002495673148016131e+00 6.978906697354670952e-01 -1.153213225725401303e+00
-8.552332881078886118e+00 -1.612804321885178860e+00 -2.693586422590857676e+00 -1.612804321885178860e+00 -1.144818478677612639e+01 1.161076496870531161e+00 -2.693586422590857676e+00 1.161076496870531161e+00 -9.993054498610460357e+00
-5.755638869118300249e+00 -1.479572297628848121e+00 -2.873867589590072491e+00 -1.479572297628848121e+00 -1.142023129722183050e+01 1.583454925692893811e+00 -2.873867589590072491e+00 1.583454925692893811e+00 -1.228496323604992391e+01
-3.836960510438727212e+00 -1.747064569515149657e+00 -2.774909457688071512e+00 -1.747064569515149657e+00 -6.878404830967044248e+00 2.156198795135432444e+00 -2.774909457688071512e+00 2.156198795135432444e+00 -8.482716964635949708e+00
-1.048371681471758521e+00 -2.025697278757498054e+00 -2.153201705727594728e+00 -2.025697278757498054e+00 -2.633184659164844010e+00 2.612958740050151718e+00 -2.153201705727594728e+00 2.612958740050151718e+00 -1.410012325449233384e+00
1.231699923070245672e+00 -1.981003020756403776e+00 -1.140481219009087610e+00 -1.981003020756403776e+00 -2.019656072367578492e+00 2.550207231890839754e+00 -1.140481219009087610e+00 2.550207231890839754e+00 3.107692607059956202e+00
5.643223855571902980e+00 -1.630276093952214067e+00 -1.297679206229833015e+00 -1.630276093952214067e+00 -2.358612042948640686e-01 2.839452708442329776e+00 -1.297679206229833015e+00 2.839452708442329776e+00 1.258214214417807952e-01
1.049130542468176230e+01 -9.106554655308802815e-01 -1.288899938790709188e+00 -9.106554655308802815e-01 3.550604828762023324e+00 3.160676178032453709e+00 -1.288899938790709188e+00 3.160676178032453709e+00 -2.036438553775898885e+00
1.346532069708007739e+01 -2.359784963299013105e-01 -7.034643019033770539e-01 -2.359784963299013105e-01 8.065152211916608138e+00 2.748802006094890782e+00 -7.034643019033770539e-01 2.748802006094890782e+00 -1.380369852148859849e-02
1.133046355235707203e+01 -3.500103577692936230e-01 -1.142539234680308713e-01 -3.500103577692936230e-01 5.732733658167497914e+00 1.820702890323100398e+00 -1.142539234680308713e-01 1.820702890323100398e+00 -2.262124913024466943e-01
5.563719733757502617e+00 -7.539006896151833059e-01 2.877691867154290040e-01 -7.539006896151833059e-01 2.923878219079544816e-01 5.217870942633678899e-01 2.877691867154290040e-01 5.217870942633678899e-01 -1.815545613685627391e+00
-1.702111493085766980e-01 -1.180544335253628452e+00 7.668491483359177741e-01 -1.180544335253628452e+00 -3.158320242432348657e+00 -5.988673566262027181e-01 7.668491483359177741e-01 -5.988673566262027181e-01 -4.540750548822162891e+00
-2.317008238417166854e+00 -1.510280520701594353e+00 1.224248909631167059e+00 -1.510280520701594353e+00 -5.686357780337043977e+00 -1.132523839446307301e+00 1.224248909631167059e+00 -1.132523839446307301e+00 -7.853447072148033392e+00
-3.943823881648145679e+00 -1.374034373059715541e+00 1.351226517433961716e+00 -1.374034373059715541e+00 -9.160679820963613551e+00 -9.955102410894186571e-01 1.351226517433961716e+00 -9.955102410894186571e-01 -7.503400722693378988e+00
-2.744725322236249099e+00 -6.104913256179218539e-01 1.177251514990523606e+00 -6.104913256179218539e-01 -9.882015280353874331e+00 -2.006089032027250085e-01 1.177251514990523606e+00 -2.006089032027250085e-01 -4.732324792258347124e+00
2.000804055832548500e-01 1.225079503232820166e-01 1.159700211815132942e+00 1.225079503232820166e-01 -6.715841170575788333e+00 6.691887229810656867e-01 1.159700211815132942e+00 6.691887229810656867e-01 -2.189504032088848362e+00
1.929583790230121956e-02 1.934477081473798821e-01 9.632073936371118306e-01 1.934477081473798821e-01 -2.968365009635267615e+00 9.397240084796237847e-01 9.632073936371118306e-01 9.397240084796237847e-01 -1.675194950360892054e-01
1.179663900109497870e-01 -2.476496639002233047e-01 5.367683583253568536e-01 -2.476496639002233047e-01 -7.411306313395921164e-01 1.146423045470675861e+00 5.367683583253568536e-01 1.146423045470675861e+00 2.984830393839148943e+00
-1.186986013180308719e+00 -8.066469251549278630e-01 3.692272018175975501e-01 -8.066469251549278630e-01 -1.267652767614563025e+00 8.778604017387964253e-01 3.692272018175975501e-01 8.778604017387964253e-01 4.979156202881184434e+00
-4.250649566070537344e-01 -1.525455215568991552e+00 2.792153655327497264e-01 -1.525455215568991552e+00 1.864626117210074485e-01 2.242783373174244144e-01 2.792153655327497264e-01 2.242783373174244144e-01 8.045007449666938371e+00
1.396596298446884932e+00 -2.416519582534932375e+00 6.341309198523376045e-02 -2.416519582534932375e+00 2.890208857257633213e+00 3.343136773948494067e-01 6.341309198523376045e-02 3.343136773948494067e-01 8.001771521965126865e+00
3.422641935069770103e+00 -2.805110308148084819e+00 4.218671979757376289e-01 -2.805110308148084819e+00 5.681705528367072766e+00 5.460693746471522170e-01 4.218671979757376289e-01 5.460693746471522170e-01 5.590249983677590961e+00
1.752814362201304377e+00 -2.907140909124018346e+00 1.014706095344638515e+00 -2.907140909124018346e+00 4.469355409063142659e+00 8.534392750709936248e-02 1.014706095344638515e+00 8.534392750709936248e-02 1.934487546487812848e+00
-1.195754663062670531e+00 -3.149182257776974581e+00 8.260105194130298312e-01 -3.149182257776974581e+00 7.858588445295761060e-01 -1.341365830138670223e-01 8.260105194130298312e-01 -1.341365830138670223e-01 -4.194143715348994661e-01
-3.312949862354046093e+00 -2.851059050157281671e+00 -4.722545416589672349e-03 -2.851059050157281671e+00 -4.284309915986052708e+00 -1.945313381078845605e-01 -4.722545416589672349e-03 -1.945313381078845605e-01 -4.194718776101907132e+00
-3.843516401382943037e+00 -1.544688316528356031e+00 -1.181179709440288939e+00 -1.544688316528356031e+00 -7.314205590113901145e+00 -1.070305405965153861e-01 -1.181179709440288939e+00 -1.070305405965153861e-01 -6.673354776956308854e+00
-5.261595061005465368e+00 3.197226530127619121e-02 -1.816463858303449586e+00 3.197226530127619121e-02 -8.879013622683295637e+00 -3.214137534388048639e-02 -1.816463858303449586e+00 -3.214137534388048639e-02 -1.009231282050186884e+01
-7.402756050855382242e+00 7.436932759209587962e-01 -1.388000453614840701e+00 7.436932759209587962e-01 -1.034223245210603537e+01 -4.979565309042909282e-01 -1.388000453614840701e+00 -4.979565309042909282e-01 -1.328387174825103401e+01
-4.882553099963281795e+00 8.373712104806712020e-01 -8.960064131163961720e-01 8.373712104806712020e-01 -8.960557316869973477e+00 -8.574380043692816367e-01 -8.960064131163961720e-01 -8.574380043692816367e-01 -9.660624253012722207e+00
3.319125370221212012e+00 3.564370335680714375e-01 -6.934770367360401089e-01 3.564370335680714375e-01 -3.121750688763427206e+00 -6.420119091360559915e-01 -6.934770367360401089e-01 -6.420119091360559915e-01 -4.280785037781289493e-01
5.411129231197006284e+00 5.036553277132954642e-01 -9.931650240893640236e-01 5.036553277132954642e-01 2.306501734517257596e+00 2.583621082948410475e-02 -9.931650240893640236e-01 2.583621082948410475e-02 4.646693837345136302e+00
3.662569949752514820e+00 8.854260745042135117e-01 -1.323238094027608058e+00 8.854260745042135117e-01 3.615671600468515212e+00 4.680370881857487397e-01 -1.323238094027608058e+00 4.680370881857487397e-01 7.956895728818862423e+00
3.681562450179442170e+00 3.537328730355938644e-01 -9.149305129528757519e-01 3.537328730355938644e-01 1.841549139766785581e+00 7.672836820948656378e-01 -9.149305129528757519e-01 7.672836820948656378e-01 1.055827527631431728e+01
3.259409272882940023e+00 -2.861851447791091685e-01 2.190656077668298729e-02 -2.861851447791091685e-01 -4.874697711854181770e-01 7.010204671393918119e-01 2.190656077668298729e-02 7.010204671393918119e-01 1.074191138478930796e+01
5.525511578642126054e+00 -1.014329650803325045e+00 1.026208591612408405e+00 -1.014329650803325045e+00 -1.938982078815574273e+00 4.069623786048328085e-01 1.026208591612408405e+00 4.069623786048328085e-01 5.576909208299399623e+00
-6.356818054162772791e-01 -1.951407096374650596e+00 7.034854052813588332e-01 -1.951407096374650596e+00 -5.725568839978029345e+00 5.679986247055830439e-01 7.034854052813588332e-01 5.679986247055830439e-01 4.319941406753894375e-01
-5.277312027056127341e+00 -2.153457762570670564e+00 1.475874461014306527e-02 -2.153457762570670564e+00 -7.361832404791802453e+00 2.137450372431971002e-01 1.475874461014306527e-02 2.137450372431971002e-01 -9.270608705241502046e-01
-4.713619778895327350e+00 -1.664876125601332468e+00 -5.645010903128747648e-01 -1.664876125601332468e+00 -7.131954534850678762e+00 1.605274428149140037e-02 -5.645010903128747648e-01 1.605274428149140037e-02 3.244982219589079619e+00
-7.269995227529818749e+00 -8.946203473180550647e-01 -9.913781444609306437e-01 -8.946203473180550647e-01 -8.528674171395046244e+00 -5.312981334398637900e-02 -9.913781444609306437e-01 -5.312981334398637900e-02 2.708395720747666324e+00
-8.572162491694999886e+00 -3.445283977339851367e-01 -1.328418981565670842e+00 -3.445283977339851367e-01 -1.138132597238315036e+01 -6.610607928245335607e-01 -1.328418981565670842e+00 -6.610607928245335607e-01 -4.339476839417664600e+00
-5.749000282954034091e+00 -2.206078630558185039e-01 -1.718821657372447964e+00 -2.206078630558185039e-01 -1.032232592699376106e+01 -6.471479524125707261e-01 -1.718821657372447964e+00 -6.471479524125707261e-01 -6.928989483522617121e+00
-1.799831170025341931e-01 -5.351475435868704444e-01 -2.233401214764853204e+00 -5.351475435868704444e-01 -7.177963033827127859e+00 2.279308496680926555e-01 -2.233401214764853204e+00 2.279308496680926555e-01 -3.791863083222217767e+00
4.289702496358382966e+00 -8.252739362601684281e-01 -2.714903762076072535e+00 -8.252739362601684281e-01 -4.845890730523933598e+00 9.293758503750491062e-01 -2.714903762076072535e+00 9.293758503750491062e-01 4.417086759565991727e+00