8.166302085092040031e+00 -0.000000000000000000e+00 0.000000000000000000e+00 6.872960437170035075e-02 8.110112965224534065e+00 0.000000000000000000e+00 8.349951935162198968e-03 3.897977562067336116e-02 8.165592096212948903e+00
8.163715031349900286e+00 -0.000000000000000000e+00 0.000000000000000000e+00 6.872960437170035075e-02 8.107543711983929313e+00 0.000000000000000000e+00 8.349951935162198968e-03 3.897977562067336116e-02 8.163005267392515307e+00
8.158264106879062894e+00 -0.000000000000000000e+00 0.000000000000000000e+00 6.872960437170035075e-02 8.102130293184197640e+00 0.000000000000000000e+00 8.349951935162198968e-03 3.897977562067336116e-02 8.157554816831948941e+00
8.149917912383271457e+00 -0.000000000000000000e+00 0.000000000000000000e+00 6.872960437170035075e-02 8.093841525577840201e+00 0.000000000000000000e+00 8.349951935162198968e-03 3.897977562067336116e-02 8.149209347964982086e+00
8.138699526734678003e+00 -0.000000000000000000e+00 0.000000000000000000e+00 6.872960437170035075e-02 8.082700329238921455e+00 0.000000000000000000e+00 8.349951935162198968e-03 3.897977562067336116e-02 8.137991937657773178e+00
8.126349566397767177e+00 -0.000000000000000000e+00 0.000000000000000000e+00 6.872960437170035075e-02 8.070435344131869471e+00 0.000000000000000000e+00 8.349951935162198968e-03 3.897977562067336116e-02 8.125643051042683140e+00
8.115622026658718013e+00 -0.000000000000000000e+00 0.000000000000000000e+00 6.872960437170035075e-02 8.059781616383935088e+00 0.000000000000000000e+00 8.349951935162198968e-03 3.897977562067336116e-02 8.114916443969264037e+00
8.107179110178687864e+00 -0.000000000000000000e+00 0.000000000000000000e+00 6.872960437170035075e-02 8.051396792299508220e+00 0.000000000000000000e+00 8.349951935162198968e-03 3.897977562067336116e-02 8.106474261528008540e+00
8.100051143731409553e+00 -0.000000000000000000e+00 0.000000000000000000e+00 6.872960437170035075e-02 8.044317870591910946e+00 0.000000000000000000e+00 8.349951935162198968e-03 3.897977562067336116e-02 8.099346914795162888e+00
8.094219853793070740e+00 -0.000000000000000000e+00 0.000000000000000000e+00 6.872960437170035075e-02 8.038526703470614265e+00 0.000000000000000000e+00 8.349951935162198968e-03 3.897977562067336116e-02 8.093516131836906879e+00
8.090742874894607084e+00 -0.000000000000000000e+00 0.000000000000000000e+00 6.872960437170035075e-02 8.035073648299439597e+00 0.000000000000000000e+00 8.349951935162198968e-03 3.897977562067336116e-02 8.090039455231702092e+00
8.091735645323922199e+00 -0.000000000000000000e+00 0.000000000000000000e+00 6.872960437170035075e-02 8.036059587865075571e+00 0.000000000000000000e+00 8.349951935162198968e-03 3.897977562067336116e-02 8.091032139347515084e+00
8.099035691415659599e+00 -0.000000000000000000e+00 0.000000000000000000e+00 6.872960437170035075e-02 8.043309405203942219e+00 0.000000000000000000e+00 8.349951935162198968e-03 3.897977562067336116e-02 8.098331550763903763e+00
8.112838415596021591e+00 -0.000000000000000000e+00 0.000000000000000000e+00 6.872960437170035075e-02 8.057017158256989831e+00 0.000000000000000000e+00 8.349951935162198968e-03 3.897977562067336116e-02 8.112133074918174813e+00
8.131868922930689081e+00 -0.000000000000000000e+00 0.000000000000000000e+00 6.872960437170035075e-02 8.075916724138396674e+00 0.000000000000000000e+00 8.349951935162198968e-03 3.897977562067336116e-02 8.131161927715368165e+00
8.155223070001186514e+00 -0.000000000000000000e+00 0.000000000000000000e+00 6.872960437170035075e-02 8.099110180488876765e+00 0.000000000000000000e+00 8.349951935162198968e-03 3.897977562067336116e-02 8.154514044346552026e+00
8.182308709346092002e+00 -0.000000000000000000e+00 0.000000000000000000e+00 6.872960437170035075e-02 8.126009454178555913e+00 0.000000000000000000e+00 8.349951935162198968e-03 3.897977562067336116e-02 8.181597328830012117e+00
8.211433073360481671e+00 -0.000000000000000000e+00 0.000000000000000000e+00 6.872960437170035075e-02 8.154933424873473058e+00 0.000000000000000000e+00 8.349951935162198968e-03 3.897977562067336116e-02 8.210719160734976541e+00
8.239634484389666724e+00 -0.000000000000000000e+00 0.000000000000000000e+00 6.872960437170035075e-02 8.182940793060625495e+00 0.000000000000000000e+00 8.349951935162198968e-03 3.897977562067336116e-02 8.238918119896275982e+00
8.264802546246723836e+00 -0.000000000000000000e+00 0.000000000000000000e+00 6.872960437170035075e-02 8.207935683360510382e+00 0.000000000000000000e+00 8.349951935162198968e-03 3.897977562067336116e-02 8.264083993609929735e+00
8.285563359739230194e+00 -0.000000000000000000e+00 0.000000000000000000e+00 6.872960437170035075e-02 8.228553649843288298e+00 0.000000000000000000e+00 8.349951935162198968e-03 3.897977562067336116e-02 8.284843002130823919e+00
8.301225572077818526e+00 -0.000000000000000000e+00 0.000000000000000000e+00 6.872960437170035075e-02 8.244108096645208050e+00 0.000000000000000000e+00 8.349951935162198968e-03 3.897977562067336116e-02 8.300503852776252245e+00
8.311906431002578088e+00 -0.000000000000000000e+00 0.000000000000000000e+00 6.872960437170035075e-02 8.254715464772003131e+00 0.000000000000000000e+00 8.349951935162198968e-03 3.897977562067336116e-02 8.311183783093357036e+00
8.316304819831128015e+00 -0.000000000000000000e+00 0.000000000000000000e+00 6.872960437170035075e-02 8.259083590012759046e+00 0.000000000000000000e+00 8.349951935162198968e-03 3.897977562067336116e-02 8.315581789520107847e+00
8.312028930156435180e+00 -0.000000000000000000e+00 0.000000000000000000e+00 6.872960437170035075e-02 8.254837121056713301e+00 0.000000000000000000e+00 8.349951935162198968e-03 3.897977562067336116e-02 8.311306271597276307e+00
8.298051734269385804e+00 -0.000000000000000000e+00 0.000000000000000000e+00 6.872960437170035075e-02 8.240956096769068040e+00 0.000000000000000000e+00 8.349951935162198968e-03 3.897977562067336116e-02 8.297330290905231109e+00
8.275951977936237824e+00 -0.000000000000000000e+00 0.000000000000000000e+00 6.872960437170035075e-02 8.219008400186618601e+00 0.000000000000000000e+00 8.349951935162198968e-03 3.897977562067336116e-02 8.275232455953021926e+00
8.248515110005111950e+00 -0.000000000000000000e+00 0.000000000000000000e+00 6.872960437170035075e-02 8.191760314576804092e+00 0.000000000000000000e+00 8.349951935162198968e-03 3.897977562067336116e-02 8.247797973420166073e+00
8.219446553796473154e+00 -0.000000000000000000e+00 0.000000000000000000e+00 6.872960437170035075e-02 8.162891767694855361e+00 0.000000000000000000e+00 8.349951935162198968e-03 3.897977562067336116e-02 8.218731944467981165e+00
8.191034255304220579e+00 -0.000000000000000000e+00 0.000000000000000000e+00 6.872960437170035075e-02 8.134674963079278953e+00 0.000000000000000000e+00 8.349951935162198968e-03 3.897977562067336116e-02 8.190322116178508693e+00
8.164165667184905217e+00 -0.000000000000000000e+00 0.000000000000000000e+00 6.872960437170035075e-02 8.107991247169781701e+00 0.000000000000000000e+00 8.349951935162198968e-03 3.897977562067336116e-02 8.163455864048746236e+00
8.139496141189125566e+00 -0.000000000000000000e+00 0.000000000000000000e+00 6.872960437170035075e-02 8.083491462500919766e+00 0.000000000000000000e+00 8.349951935162198968e-03 3.897977562067336116e-02 8.138788482853620110e+00
8.117582448429939035e+00 -0.000000000000000000e+00 0.000000000000000000e+00 6.872960437170035075e-02 8.061728549262802801e+00 0.000000000000000000e+00 8.349951935162198968e-03 3.897977562067336116e-02 8.116876695299467315e+00
8.100295072419282150e+00 -0.000000000000000000e+00 0.000000000000000000e+00 6.872960437170035075e-02 8.044560120902445988e+00 0.000000000000000000e+00 8.349951935162198968e-03 3.897977562067336116e-02 8.099590822275159141e+00
8.090161934937672328e+00 -0.000000000000000000e+00 0.000000000000000000e+00 6.872960437170035075e-02 8.034496705563496377e+00 0.000000000000000000e+00 8.349951935162198968e-03 3.897977562067336116e-02 8.089458565782477351e+00
8.088746720194075479e+00 -0.000000000000000000e+00 0.000000000000000000e+00 6.872960437170035075e-02 8.033091228356846969e+00 0.000000000000000000e+00 8.349951935162198968e-03 3.897977562067336116e-02 8.088043474079171347e+00
8.095688595355550632e+00 -0.000000000000000000e+00 0.000000000000000000e+00 6.872960437170035075e-02 8.039985339199267500e+00 0.000000000000000000e+00 8.349951935162198968e-03 3.897977562067336116e-02 8.094984745705120943e+00
8.109209317415203344e+00 -0.000000000000000000e+00 0.000000000000000000e+00 6.872960437170035075e-02 8.053413030476432866e+00 0.000000000000000000e+00 8.349951935162198968e-03 3.897977562067336116e-02 8.108504292255540591e+00
8.127768361151758825e+00 -0.000000000000000000e+00 0.000000000000000000e+00 6.872960437170035075e-02 8.071844376716054370e+00 0.000000000000000000e+00 8.349951935162198968e-03 3.897977562067336116e-02 8.127061722444384628e+00
8.150598194703361443e+00 -0.000000000000000000e+00 0.000000000000000000e+00 6.872960437170035075e-02 8.094517127141875434e+00 0.000000000000000000e+00 8.349951935162198968e-03 3.897977562067336116e-02 8.149889571140411348e+00
8.176074598989506725e+00 -0.000000000000000000e+00 0.000000000000000000e+00 6.872960437170035075e-02 8.119818238289060019e+00 0.000000000000000000e+00 8.349951935162198968e-03 3.897977562067336116e-02 8.175363760475308439e+00
8.200879715790785340e+00 -0.000000000000000000e+00 0.000000000000000000e+00 6.872960437170035075e-02 8.144452680815790657e+00 0.000000000000000000e+00 8.349951935162198968e-03 3.897977562067336116e-02 8.200166720687999344e+00
8.221553696845123937e+00 -0.000000000000000000e+00 0.000000000000000000e+00 6.872960437170035075e-02 8.164984412319961748e+00 0.000000000000000000e+00 8.349951935162198968e-03 3.897977562067336116e-02 8.220838904319684559e+00
8.236145870964175941e+00 -0.000000000000000000e+00 0.000000000000000000e+00 6.872960437170035075e-02 8.179476183415964385e+00 0.000000000000000000e+00 8.349951935162198968e-03 3.897977562067336116e-02 8.235429809776039889e+00
8.243775711447517196e+00 -0.000000000000000000e+00 0.000000000000000000e+00 6.872960437170035075e-02 8.187053525960497069e+00 0.000000000000000000e+00 8.349951935162198968e-03 3.897977562067336116e-02 8.243058986911199426e+00
8.245044200673710577e+00 -0.000000000000000000e+00 0.000000000000000000e+00 6.872960437170035075e-02 8.188313287209931346e+00 0.000000000000000000e+00 8.349951935162198968e-03 3.897977562067336116e-02 8.244327365853028056e+00
8.241794401516534307e+00 -0.000000000000000000e+00 0.000000000000000000e+00 6.872960437170035075e-02 8.185085848646039608e+00 0.000000000000000000e+00 8.349951935162198968e-03 3.897977562067336116e-02 8.241077849238223507e+00
8.235786203357532642e+00 -0.000000000000000000e+00 0.000000000000000000e+00 6.872960437170035075e-02 8.179118990540073852e+00 0.000000000000000000e+00 8.349951935162198968e-03 3.897977562067336116e-02 8.235070173439215324e+00
8.227318757554700213e+00 -0.000000000000000000e+00 0.000000000000000000e+00 6.872960437170035075e-02 8.170709805908872525e+00 0.000000000000000000e+00 8.349951935162198968e-03 3.897977562067336116e-02 8.226603463807146355e+00
8.215156909096961613e+00 -0.000000000000000000e+00 0.000000000000000000e+00 6.872960437170035075e-02 8.158631638357441318e+00 0.000000000000000000e+00 8.349951935162198968e-03 3.897977562067336116e-02 8.214442672716320004e+00
8.198693579454843672e+00 -0.000000000000000000e+00 0.000000000000000000e+00 6.872960437170035075e-02 8.142281586426264539e+00 0.000000000000000000e+00 8.349951935162198968e-03 3.897977562067336116e-02 8.197980774417965577e+00
8.179007500222844840e+00 -0.000000000000000000e+00 0.000000000000000000e+00 6.872960437170035075e-02 8.122730959379561355e+00 0.000000000000000000e+00 8.349951935162198968e-03 3.897977562067336116e-02 8.178296406718112976e+00
8.158280741848306761e+00 -0.000000000000000000e+00 0.000000000000000000e+00 6.872960437170035075e-02 8.102146813695100036e+00 0.000000000000000000e+00 8.349951935162198968e-03 3.897977562067336116e-02 8.157571450355202813e+00
8.138213495038421286e+00 -0.000000000000000000e+00 0.000000000000000000e+00 6.872960437170035075e-02 8.082217641735416791e+00 0.000000000000000000e+00 8.349951935162198968e-03 3.897977562067336116e-02 8.137505948217276242e+00
8.119709809686208146e+00 -0.000000000000000000e+00 0.000000000000000000e+00 6.872960437170035075e-02 8.063841272981328245e+00 0.000000000000000000e+00 8.349951935162198968e-03 3.897977562067336116e-02 8.119003871599799638e+00
8.103710325080060173e+00 -0.000000000000000000e+00 0.000000000000000000e+00 6.872960437170035075e-02 8.047951874549491791e+00 0.000000000000000000e+00 8.349951935162198968e-03 3.897977562067336116e-02 8.103005778009643834e+00
8.091502181373810387e+00 -0.000000000000000000e+00 0.000000000000000000e+00 6.872960437170035075e-02 8.035827730289716087e+00 0.000000000000000000e+00 8.349951935162198968e-03 3.897977562067336116e-02 8.090798695695285758e+00
8.084454986184589131e+00 -0.000000000000000000e+00 0.000000000000000000e+00 6.872960437170035075e-02 8.028829024084377153e+00 0.000000000000000000e+00 8.349951935162198968e-03 3.897977562067336116e-02 8.083752113198537259e+00
8.082957082385973990e+00 -0.000000000000000000e+00 0.000000000000000000e+00 6.872960437170035075e-02 8.027341426774434296e+00 0.000000000000000000e+00 8.349951935162198968e-03 3.897977562067336116e-02 8.082254339629173501e+00
8.086833163574082661e+00 -0.000000000000000000e+00 0.000000000000000000e+00 6.872960437170035075e-02 8.031190838169063539e+00 0.000000000000000000e+00 8.349951935162198968e-03 3.897977562067336116e-02 8.086130083826221338e+00
8.095180655100408629e+00 -0.000000000000000000e+00 0.000000000000000000e+00 6.872960437170035075e-02 8.039480893881007617e+00 0.000000000000000000e+00 8.349951935162198968e-03 3.897977562067336116e-02 8.094476849610725111e+00
8.107595178315673223e+00 -0.000000000000000000e+00 0.000000000000000000e+00 6.872960437170035075e-02 8.051809997633974092e+00 0.000000000000000000e+00 8.349951935162198968e-03 3.897977562067336116e-02 8.106890293491202826e+00
8.124397758202963615e+00 -0.000000000000000000e+00 0.000000000000000000e+00 6.872960437170035075e-02 8.068496965563760170e+00 0.000000000000000000e+00 8.349951935162198968e-03 3.897977562067336116e-02 8.123691412540901879e+00
8.144670194114718598e+00 -0.000000000000000000e+00 0.000000000000000000e+00 6.872960437170035075e-02 8.088629914799442489e+00 0.000000000000000000e+00 8.349951935162198968e-03 3.897977562067336116e-02 8.143962085939801199e+00
8.165328288462506023e+00 -0.000000000000000000e+00 0.000000000000000000e+00 6.872960437170035075e-02 8.109145868906432852e+00 0.000000000000000000e+00 8.349951935162198968e-03 3.897977562067336116e-02 8.164618384245928340e+00
8.183824745995327277e+00 -0.000000000000000000e+00 0.000000000000000000e+00 6.872960437170035075e-02 8.127515059574839995e+00 0.000000000000000000e+00 8.349951935162198968e-03 3.897977562067336116e-02 8.183113233674006892e+00
8.199654010489313194e+00 -0.000000000000000000e+00 0.000000000000000000e+00 6.872960437170035075e-02 8.143235409110772594e+00 0.000000000000000000e+00 8.349951935162198968e-03 3.897977562067336116e-02 8.198941121950914734e+00
8.213572829845396939e+00 -0.000000000000000000e+00 0.000000000000000000e+00 6.872960437170035075e-02 8.157058458534137912e+00 0.000000000000000000e+00 8.349951935162198968e-03 3.897977562067336116e-02 8.212858731186965855e+00
8.226069347378679453e+00 -0.000000000000000000e+00 0.000000000000000000e+00 6.872960437170035075e-02 8.169468992434367749e+00 0.000000000000000000e+00 8.349951935162198968e-03 3.897977562067336116e-02 8.225354162256500956e+00
8.235019705120725675e+00 -0.000000000000000000e+00 0.000000000000000000e+00 6.872960437170035075e-02 8.178357766276908691e+00 0.000000000000000000e+00 8.349951935162198968e-03 3.897977562067336116e-02 8.234303741843026714e+00
8.237761000003006373e+00 -0.000000000000000000e+00 0.000000000000000000e+00 6.872960437170035075e-02 8.181080199384764384e+00 0.000000000000000000e+00 8.349951935162198968e-03 3.897977562067336116e-02 8.237044798393679201e+00
8.234330386660650092e+00 -0.000000000000000000e+00 0.000000000000000000e+00 6.872960437170035075e-02 8.177673190746530096e+00 0.000000000000000000e+00 8.349951935162198968e-03 3.897977562067336116e-02 8.233614483312605259e+00
8.227580092620375041e+00 -0.000000000000000000e+00 0.000000000000000000e+00 6.872960437170035075e-02 8.170969342830899151e+00 0.000000000000000000e+00 8.349951935162198968e-03 3.897977562067336116e-02 8.226864776151952441e+00
8.220434192462329648e+00 -0.000000000000000000e+00 0.000000000000000000e+00 6.872960437170035075e-02 8.163872610806825136e+00 0.000000000000000000e+00 8.349951935162198968e-03 3.897977562067336116e-02 8.219719497267330865e+00
8.213969051622626694e+00 -0.000000000000000000e+00 0.000000000000000000e+00 6.872960437170035075e-02 8.157451954065059851e+00 0.000000000000000000e+00 8.349951935162198968e-03 3.897977562067336116e-02 8.213254918516391001e+00
8.207200899931146765e+00 -0.000000000000000000e+00 0.000000000000000000e+00 6.872960437170035075e-02 8.150730371368512195e+00 0.000000000000000000e+00 8.349951935162198968e-03 3.897977562067336116e-02 8.206487355256523841e+00
8.199107101793485342e+00 -0.000000000000000000e+00 0.000000000000000000e+00 6.872960437170035075e-02 8.142692263480283188e+00 0.000000000000000000e+00 8.349951935162198968e-03 3.897977562067336116e-02 8.198394260803812728e+00
8.190493439122320751e+00 -0.000000000000000000e+00 0.000000000000000000e+00 6.872960437170035075e-02 8.134137868040959063e+00 0.000000000000000000e+00 8.349951935162198968e-03 3.897977562067336116e-02 8.189781347015339108e+00
8.183164447648204387e+00 -0.000000000000000000e+00 0.000000000000000000e+00 6.872960437170035075e-02 8.126859304481563129e+00 0.000000000000000000e+00 8.349951935162198968e-03 3.897977562067336116e-02 8.182452992733551866e+00
8.179253346783678325e+00 -0.000000000000000000e+00 0.000000000000000000e+00 6.872960437170035075e-02 8.122975114367131155e+00 0.000000000000000000e+00 8.349951935162198968e-03 3.897977562067336116e-02 8.178542231905067794e+00
8.179672128816042331e+00 -0.000000000000000000e+00 0.000000000000000000e+00 6.872960437170035075e-02 8.123391014925081421e+00 0.000000000000000000e+00 8.349951935162198968e-03 3.897977562067336116e-02 8.178960977528642928e+00
8.184349777252089453e+00 -0.000000000000000000e+00 0.000000000000000000e+00 6.872960437170035075e-02 8.128036478297394396e+00 0.000000000000000000e+00 8.349951935162198968e-03 3.897977562067336116e-02 8.183638219284031123e+00
8.192034157849480636e+00 -0.000000000000000000e+00 0.000000000000000000e+00 6.872960437170035075e-02 8.135667985687142334e+00 0.000000000000000000e+00 8.349951935162198968e-03 3.897977562067336116e-02 8.191321931791268440e+00
8.200265775954807879e+00 -0.000000000000000000e+00 0.000000000000000000e+00 6.872960437170035075e-02 8.143842965259496580e+00 0.000000000000000000e+00 8.349951935162198968e-03 3.897977562067336116e-02 8.199552834228715170e+00
8.208351273747247490e+00 -0.000000000000000000e+00 0.000000000000000000e+00 6.872960437170035075e-02 8.151872829914179164e+00 0.000000000000000000e+00 8.349951935162198968e-03 3.897977562067336116e-02 8.207637629057201067e+00
8.216097553222329708e+00 -0.000000000000000000e+00 0.000000000000000000e+00 6.872960437170035075e-02 8.159565810280065890e+00 0.000000000000000000e+00 8.349951935162198968e-03 3.897977562067336116e-02 8.215383235061160860e+00
8.222595992417357280e+00 -0.000000000000000000e+00 0.000000000000000000e+00 6.872960437170035075e-02 8.166019536264476741e+00 0.000000000000000000e+00 8.349951935162198968e-03 3.897977562067336116e-02 8.221881109272439758e+00
8.227251925552403478e+00 -0.000000000000000000e+00 0.000000000000000000e+00 6.872960437170035075e-02 8.170643433751928697e+00 0.000000000000000000e+00 8.349951935162198968e-03 3.897977562067336116e-02 8.226536637615817327e+00
8.230037284300040668e+00 -0.000000000000000000e+00 0.000000000000000000e+00 6.872960437170035075e-02 8.173409627538884337e+00 0.000000000000000000e+00 8.349951935162198968e-03 3.897977562067336116e-02 8.229321754200846328e+00
8.230560773265679586e+00 -0.000000000000000000e+00 0.000000000000000000e+00 6.872960437170035075e-02 8.173929514582258804e+00 0.000000000000000000e+00 8.349951935162198968e-03 3.897977562067336116e-02 8.229845197653750333e+00
8.228922794995376933e+00 -0.000000000000000000e+00 0.000000000000000000e+00 6.872960437170035075e-02 8.172302806597080860e+00 0.000000000000000000e+00 8.349951935162198968e-03 3.897977562067336116e-02 8.228207361790625285e+00
8.225877058743551018e+00 -0.000000000000000000e+00 0.000000000000000000e+00 6.872960437170035075e-02 8.169278026861622521e+00 0.000000000000000000e+00 8.349951935162198968e-03 3.897977562067336116e-02 8.225161890339276027e+00
8.222061419647518576e+00 -0.000000000000000000e+00 0.000000000000000000e+00 6.872960437170035075e-02 8.165488641680465065e+00 0.000000000000000000e+00 8.349951935162198968e-03 3.897977562067336116e-02 8.221346582979334627e+00
8.216887768792611624e+00 -0.000000000000000000e+00 0.000000000000000000e+00 6.872960437170035075e-02 8.160350588686645423e+00 0.000000000000000000e+00 8.349951935162198968e-03 3.897977562067336116e-02 8.216173381928838282e+00
8.209131536831817400e+00 -0.000000000000000000e+00 0.000000000000000000e+00 6.872960437170035075e-02 8.152647724314652677e+00 0.000000000000000000e+00 8.349951935162198968e-03 3.897977562067336116e-02 8.208417824305163535e+00
8.198831564285562479e+00 -0.000000000000000000e+00 0.000000000000000000e+00 6.872960437170035075e-02 8.142418621837446580e+00 0.000000000000000000e+00 8.349951935162198968e-03 3.897977562067336116e-02 8.198118747251751159e+00
8.186870566561665896e+00 -0.000000000000000000e+00 0.000000000000000000e+00 6.872960437170035075e-02 8.130539923044814543e+00 0.000000000000000000e+00 8.349951935162198968e-03 3.897977562067336116e-02 8.186158789431871696e+00
8.174148831850803987e+00 -0.000000000000000000e+00 0.000000000000000000e+00 6.872960437170035075e-02 8.117905721598081215e+00 0.000000000000000000e+00 8.349951935162198968e-03 3.897977562067336116e-02 8.173438160765639893e+00
8.161164029509235363e+00 -0.000000000000000000e+00 0.000000000000000000e+00 6.872960437170035075e-02 8.105010262585226499e+00 0.000000000000000000e+00 8.349951935162198968e-03 3.897977562067336116e-02 8.160454487339574570e+00
8.149259511918222287e+00 -0.000000000000000000e+00 0.000000000000000000e+00 6.872960437170035075e-02 8.093187655307716000e+00 0.000000000000000000e+00 8.349951935162198968e-03 3.897977562067336116e-02 8.148551004742605741e+00
8.139246702268971845e+00 -0.000000000000000000e+00 0.000000000000000000e+00 6.872960437170035075e-02 8.083243739872887801e+00 0.000000000000000000e+00 8.349951935162198968e-03 3.897977562067336116e-02 8.138539065620340907e+00
8.131222081012108305e+00 -0.000000000000000000e+00 0.000000000000000000e+00 6.872960437170035075e-02 8.075274332885193473e+00 0.000000000000000000e+00 8.349951935162198968e-03 3.897977562067336116e-02 8.130515142033461373e+00
8.124825419879215360e+00 -0.000000000000000000e+00 0.000000000000000000e+00 6.872960437170035075e-02 8.068921684667948568e+00 0.000000000000000000e+00 8.349951935162198968e-03 3.897977562067336116e-02 8.124119037035367086e+00
8.120444555481789450e+00 -0.000000000000000000e+00 0.000000000000000000e+00 6.872960437170035075e-02 8.064570963279011906e+00 0.000000000000000000e+00 8.349951935162198968e-03 3.897977562067336116e-02 8.119738553515748691e+00
8.118740871313709917e+00 -0.000000000000000000e+00 0.000000000000000000e+00 6.872960437170035075e-02 8.062879001493453046e+00 0.000000000000000000e+00 8.349951935162198968e-03 3.897977562067336116e-02 8.118035017467816417e+00
8.120252014070114654e+00 -0.000000000000000000e+00 0.000000000000000000e+00 6.872960437170035075e-02 8.064379746669711579e+00 0.000000000000000000e+00 8.349951935162198968e-03 3.897977562067336116e-02 8.119546028843979357e+00
8.125646165895753725e+00 -0.000000000000000000e+00 0.000000000000000000e+00 6.872960437170035075e-02 8.069736783452995610e+00 0.000000000000000000e+00 8.349951935162198968e-03 3.897977562067336116e-02 8.124939711695317257e+00
8.134947876348308071e+00 -0.000000000000000000e+00 0.000000000000000000e+00 6.872960437170035075e-02 8.078974492485960113e+00 0.000000000000000000e+00 8.349951935162198968e-03 3.897977562067336116e-02 8.134240613445525625e+00
8.147279575719331035e+00 -0.000000000000000000e+00 0.000000000000000000e+00 6.872960437170035075e-02 8.091221342273405170e+00 0.000000000000000000e+00 8.349951935162198968e-03 3.897977562067336116e-02 8.146571240681723225e+00
8.161462992963311791e+00 -0.000000000000000000e+00 0.000000000000000000e+00 6.872960437170035075e-02 8.105307168989144273e+00 0.000000000000000000e+00 8.349951935162198968e-03 3.897977562067336116e-02 8.160753424800800460e+00
8.176651073054147290e+00 -0.000000000000000000e+00 0.000000000000000000e+00 6.872960437170035075e-02 8.120390745861534754e+00 0.000000000000000000e+00 8.349951935162198968e-03 3.897977562067336116e-02 8.175940184420237955e+00
8.191438491266316291e+00 -0.000000000000000000e+00 0.000000000000000000e+00 6.872960437170035075e-02 8.135076417652383540e+00 0.000000000000000000e+00 8.349951935162198968e-03 3.897977562067336116e-02 8.190726316995805334e+00
8.203925893130071145e+00 -0.000000000000000000e+00 0.000000000000000000e+00 6.872960437170035075e-02 8.147477898604725155e+00 0.000000000000000000e+00 8.349951935162198968e-03 3.897977562067336116e-02 8.203212633188810443e+00
8.213939411643243815e+00 -0.000000000000000000e+00 0.000000000000000000e+00 6.872960437170035075e-02 8.157422518026502090e+00 0.000000000000000000e+00 8.349951935162198968e-03 3.897977562067336116e-02 8.213225281113992082e+00
8.221059613839214464e+00 -0.000000000000000000e+00 0.000000000000000000e+00 6.872960437170035075e-02 8.164493728905481973e+00 0.000000000000000000e+00 8.349951935162198968e-03 3.897977562067336116e-02 8.220344864270529683e+00
8.223593918286995930e+00 -0.000000000000000000e+00 0.000000000000000000e+00 6.872960437170035075e-02 8.167010595798638306e+00 0.000000000000000000e+00 8.349951935162198968e-03 3.897977562067336116e-02 8.222878948381577402e+00
8.220826062971603676e+00 -0.000000000000000000e+00 0.000000000000000000e+00 6.872960437170035075e-02 8.164261785009623296e+00 0.000000000000000000e+00 8.349951935162198968e-03 3.897977562067336116e-02 8.220111333707802004e+00
8.213932718472770844e+00 -0.000000000000000000e+00 0.000000000000000000e+00 6.872960437170035075e-02 8.157415870908765854e+00 0.000000000000000000e+00 8.349951935162198968e-03 3.897977562067336116e-02 8.213218588524519248e+00
8.204986806010136746e+00 -0.000000000000000000e+00 0.000000000000000000e+00 6.872960437170035075e-02 8.148531511758811519e+00 0.000000000000000000e+00 8.349951935162198968e-03 3.897977562067336116e-02 8.204273453831406826e+00
8.196358271045582455e+00 -0.000000000000000000e+00 0.000000000000000000e+00 6.872960437170035075e-02 8.139962346357506817e+00 0.000000000000000000e+00 8.349951935162198968e-03 3.897977562067336116e-02 8.195645669043535975e+00
8.190467962210975728e+00 -0.000000000000000000e+00 0.000000000000000000e+00 6.872960437170035075e-02 8.134112566426601632e+00 0.000000000000000000e+00 8.349951935162198968e-03 3.897977562067336116e-02 8.189755872318979613e+00
8.187446061700944355e+00 -0.000000000000000000e+00 0.000000000000000000e+00 6.872960437170035075e-02 8.131111458427882965e+00 0.000000000000000000e+00 8.349951935162198968e-03 3.897977562067336116e-02 8.186734234536434229e+00
8.186373428087344806e+00 -0.000000000000000000e+00 0.000000000000000000e+00 6.872960437170035075e-02 8.130046205185802677e+00 0.000000000000000000e+00 8.349951935162198968e-03 3.897977562067336116e-02 8.185661694180300429e+00
8.187345567192419793e+00 -0.000000000000000000e+00 0.000000000000000000e+00 6.872960437170035075e-02 8.131011655383380443e+00 0.000000000000000000e+00 8.349951935162198968e-03 3.897977562067336116e-02 8.186633748765860474e+00
8.189795105656139995e+00 -0.000000000000000000e+00 0.000000000000000000e+00 6.872960437170035075e-02 8.133444339534118939e+00 0.000000000000000000e+00 8.349951935162198968e-03 3.897977562067336116e-02 8.189083074263805884e+00
8.192364445077247481e+00 -0.000000000000000000e+00 0.000000000000000000e+00 6.872960437170035075e-02 8.135996000337989642e+00 0.000000000000000000e+00 8.349951935162198968e-03 3.897977562067336116e-02 8.191652190302200154e+00
8.195080376424529689e+00 -0.000000000000000000e+00 0.000000000000000000e+00 6.872960437170035075e-02 8.138693244427841478e+00 0.000000000000000000e+00 8.349951935162198968e-03 3.897977562067336116e-02 8.194367885523840656e+00
8.198306118190188840e+00 -0.000000000000000000e+00 0.000000000000000000e+00 6.872960437170035075e-02 8.141896791130262656e+00 0.000000000000000000e+00 8.349951935162198968e-03 3.897977562067336116e-02 8.197593346839113337e+00
8.201059646462050878e+00 -0.000000000000000000e+00 0.000000000000000000e+00 6.872960437170035075e-02 8.144631373455181844e+00 0.000000000000000000e+00 8.349951935162198968e-03 3.897977562067336116e-02 8.200346635716355692e+00
8.202502820720704690e+00 -0.000000000000000000e+00 0.000000000000000000e+00 6.872960437170035075e-02 8.146064617797996732e+00 0.000000000000000000e+00 8.349951935162198968e-03 3.897977562067336116e-02 8.201789684502729827e+00
8.203187578481033526e+00 -0.000000000000000000e+00 0.000000000000000000e+00 6.872960437170035075e-02 8.146744664009446524e+00 0.000000000000000000e+00 8.349951935162198968e-03 3.897977562067336116e-02 8.202474382730400748e+00
8.204376103025527556e+00 -0.000000000000000000e+00 0.000000000000000000e+00 6.872960437170035075e-02 8.147925010782014255e+00 0.000000000000000000e+00 8.349951935162198968e-03 3.897977562067336116e-02 8.203662803942490811e+00