8.231935281947000860e+00 7.996145449166999875e+00 3.391011270999999983e-03 8.236706211974999192e+00 8.023671493948999256e+00 4.089622117354999808e+00 8.200968921357999264e+00 4.168141774887000217e+00 7.306473850999999596e-03 4.649746463400000057e-02 4.173866833950000022e+00 4.077578164363999669e+00 4.148909889855000088e+00 8.006238804010999743e+00 2.577394274999999981e-03 4.152538016875999993e+00 8.016520378838999150e+00 4.078996772113000269e+00 4.132829623160000132e+00 4.194337088438000016e+00 8.164274565804999995e+00 4.126781333334999857e+00 4.195734787004999689e+00 4.084006795196000184e+00 2.114949902919999847e+00 6.102485852434000435e+00 2.036881033780999939e+00 2.096462797107999876e+00 6.115120507760000379e+00 6.125524902340999667e+00 6.177685075538000170e+00 6.106399173700999938e+00 2.033863847081000209e+00 6.165265146280000330e+00 6.098678699997999608e+00 6.102619337601000282e+00 2.048826728118999796e+00 2.038819692012999951e+00 2.039821329875000089e+00 2.074507320691000078e+00 2.059864701668999931e+00 6.125041343068000188e+00 6.144603488902999899e+00 2.028086945916999895e+00 2.024770047352999924e+00 6.151931227018000214e+00 2.053985526793999927e+00 6.122209547986999567e+00 2.072207104402000066e+00 2.095574244500999939e+00 8.163815065642999969e+00 8.184510383989000104e+00 2.031402299043000070e+00 2.049271795080000125e+00 2.110343245406999912e+00 8.019869452826000611e+00 2.026937082363000187e+00 2.066207747222999824e+00 2.068093662393000187e+00 4.071027868657999704e+00 2.684704078500000160e-02 2.038979050522999881e+00 6.122296352599000180e+00 2.130037139059000051e+00 8.046868408985000443e+00 6.120521299863000309e+00 2.099602621387000045e+00 6.124502572889999996e+00 8.147935274226000502e+00 7.274829298200000127e-02 6.109247601722000098e+00 2.051571942229000189e+00 2.081427582718000213e+00 4.187931742768999932e+00 2.037560280221000220e+00 2.094766432355999797e+00 6.095033677801000138e+00 4.095256221565000132e+00 8.221037348766000008e+00 6.114141186014999896e+00 6.122213868645999924e+00 2.067700807891000192e+00 4.212317786826999644e+00 6.112089141319000163e+00 6.152450117947999786e+00 2.002947438400000113e+00 9.811489690999999902e-03 4.097087995312000075e+00 2.027932472137000008e+00 2.031785164937999877e+00 6.186850517277999728e+00 8.010699511985999166e+00 2.070542870221999898e+00 6.117806480828000382e+00 2.043870442774999852e+00 4.105018098206000055e+00 4.123848309074999996e+00 2.044481164557999886e+00 6.136754877801999797e+00 6.186963362880000261e+00 8.033210926615000247e+00 6.105271727464000264e+00 6.186814115849999851e+00 6.101185801083000015e+00 8.159852905491000286e+00 4.147660410534999897e+00 6.096173231363000156e+00 2.047622873732999782e+00 6.147152686340000116e+00 4.169869706962000322e+00 2.040613931486999988e+00 6.180318039224999893e+00 6.091741520919000230e+00 4.071912978558000162e+00 4.149355147848999614e+00 6.125687716250999948e+00 6.133316909500000413e+00 6.170392292912000087e+00 4.200239214163000057e+00 6.143647391574000416e+00
7.723351805099999690e-02 7.988464962154999682e+00 1.820606754600000154e-02 7.236764702200000621e-02 8.008771224341000305e+00 4.115112988356999679e+00 8.153111848301000109e+00 4.178709014605000327e+00 2.443618139000000144e-03 8.157817906200000302e-02 4.130448203602999691e+00 4.083740845204999914e+00 4.162472140904999840e+00 8.072794562300000365e+00 8.147323349279000482e+00 4.146923134716000270e+00 8.009423473116999759e+00 4.087493918244000213e+00 4.090252279469000385e+00 4.150659232256000308e+00 3.101286007999999941e-03 4.139698325663999867e+00 4.214038819235000233e+00 4.054739890368000310e+00 2.191345457508000028e+00 6.116342995049000031e+00 2.041398688011999862e+00 2.103184095752999916e+00 6.089531385244000283e+00 6.165931192266000060e+00 6.174251425583999975e+00 6.162712300213000205e+00 2.025689189261000056e+00 6.190472847758000441e+00 6.051592931763999594e+00 6.067631590596000102e+00 2.040730851039000093e+00 2.015650284691000049e+00 2.009930296044000197e+00 2.080498505173999924e+00 2.084768038228999920e+00 6.115898049513999624e+00 6.127041659407000296e+00 2.011640124801000074e+00 1.983217000773999983e+00 6.149741107480999780e+00 2.035481678736999811e+00 6.162652170888000214e+00 2.068934982497999897e+00 2.251120940050999941e+00 8.155770633920999657e+00 8.129852872207999681e+00 2.025883132484000093e+00 2.106942241810000116e+00 2.123246126798000066e+00 8.037129540833999997e+00 1.964350256199999922e+00 2.126916820397000141e+00 2.169388003998999892e+00 4.000339915756000231e+00 5.886575579299999778e-02 1.978323592651000107e+00 6.111212344926999940e+00 2.189215846974999824e+00 8.125998418273999491e+00 6.085655654414000360e+00 2.074866026388999973e+00 6.152812587202999950e+00 8.086655721788000406e+00 1.464567664189999896e-01 6.147932723854999892e+00 2.058289364648000053e+00 2.099230672391000141e+00 4.241391430932000439e+00 2.030666108465999820e+00 2.143847376281000194e+00 6.076133894898999799e+00 4.165724730087999816e+00 6.316817010000000399e-02 6.162702309805999867e+00 6.115772829640000019e+00 1.955342787531000104e+00 4.311548490821000001e+00 6.048805331777000305e+00 6.199080872799999753e+00 1.896663547274000106e+00 7.015226919000000505e-02 4.047045475892000255e+00 2.008798570654000137e+00 1.924455343910000060e+00 6.115900800784999980e+00 7.983087575665000379e+00 2.169030220619000193e+00 5.958546782284999566e+00 2.047423458672000152e+00 4.186916593171999601e+00 4.186555500484000270e+00 1.983409963518999897e+00 6.241529552891999622e+00 6.128737055373999709e+00 7.987518819284000315e+00 6.039689500384000098e+00 6.212384384218999855e+00 6.008882134614999870e+00 8.126651594553999658e+00 4.161005128141000320e+00 6.075510353804999930e+00 2.067146433422000218e+00 6.088735748127000136e+00 4.192810378682000128e+00 1.996072263022000026e+00 6.169853667475000414e+00 6.040962936418999618e+00 4.039394871829999900e+00 4.192501364514000350e+00 6.165897060125000273e+00 6.137830517349000203e+00 6.175369864442999734e+00 4.220698690835000377e+00 6.235027767354999639e+00
8.948094672400000449e-02 7.975607788247000229e+00 3.179902247199999782e-02 7.434585042899999330e-02 7.989299374327999637e+00 4.140479863791999726e+00 8.110595501082000780e+00 4.229045240207000234e+00 8.155885385390000408e+00 1.174510433470000031e-01 4.087275831492999778e+00 4.087292239894000367e+00 4.166011033564999799e+00 8.097192948051999295e+00 8.121004347567000181e+00 4.140755341184999772e+00 7.999674232665999973e+00 4.097214526845999849e+00 4.055480954942000338e+00 4.145234817104999969e+00 8.727556621999999278e-03 4.151666293043000167e+00 4.230897693416999950e+00 4.022705080316000270e+00 2.250009001757999894e+00 6.117317524439999765e+00 2.054994665231999917e+00 2.111463669502000151e+00 6.086992160431000443e+00 6.193871567097000153e+00 6.178925690850999963e+00 6.183578078770000097e+00 2.013882113570999888e+00 6.209999120108999904e+00 6.026023550509999716e+00 6.034121080441999574e+00 2.032004647163000222e+00 1.995323947086000027e+00 1.979055363440000104e+00 2.089712871751999934e+00 2.105184264285000051e+00 6.101183209110000227e+00 6.099093490525000050e+00 2.005799731779999817e+00 1.967026614596000034e+00 6.150675374533999928e+00 2.013430061997000031e+00 6.192369520195000199e+00 2.049586202048999883e+00 2.416165868379999804e+00 8.113575936008000866e+00 8.099905405464999930e+00 2.018727118473000015e+00 2.172757003902999973e+00 2.137206423069999861e+00 8.062293881156000097e+00 1.898746662458999923e+00 2.188877153027999789e+00 2.283826719961000062e+00 4.006367951647000325e+00 8.040007934199999706e-02 1.923995811503000031e+00 6.091251267980999806e+00 2.168728233092999780e+00 9.958839805800000222e-02 6.052759274794000000e+00 2.065947968678000013e+00 6.182214476809999582e+00 8.072608537136000351e+00 1.756057451359999966e-01 6.188154620280999829e+00 2.058903829576999911e+00 2.117015269432000135e+00 4.263077319445000235e+00 2.017301679980000095e+00 2.197454991242000055e+00 6.086958865429999754e+00 4.160917729514999941e+00 6.137350381799999699e-02 6.223635523566000138e+00 6.102303411601000427e+00 1.860465056408999951e+00 4.278577811155000354e+00 5.996334472255999692e+00 6.253736387408999953e+00 1.773620272442999912e+00 5.738930041899999862e-02 4.040358542558999844e+00 1.990482077483999968e+00 1.810225547686000080e+00 6.051774613616999865e+00 8.002930693437999565e+00 2.246968246880999942e+00 5.813192691185999905e+00 2.062388081546000063e+00 4.180713777044999802e+00 4.144475815253000128e+00 1.946139430978000018e+00 6.370402436285999670e+00 6.092193123943999922e+00 7.975872748977000271e+00 5.987750751666999882e+00 6.246184629444999636e+00 5.972014759041000431e+00 8.143316140882999932e+00 4.154277262576999696e+00 6.067949656517000356e+00 2.073488162949999936e+00 6.038431389380000347e+00 4.163780091019000373e+00 1.954452624598000066e+00 6.164434672618000377e+00 5.977904294528999962e+00 4.018201297376999825e+00 4.208181982892000406e+00 6.174419822004000302e+00 6.140699501348000133e+00 6.188391077360999581e+00 4.149486536865000019e+00 6.313095966115000124e+00
1.024409404800000062e-01 7.957291955942999984e+00 4.440220422599999717e-02 7.642772289499999427e-02 7.965354519875999628e+00 4.165663327120999959e+00 8.057259834133999377e+00 4.240688158715999911e+00 8.144569711428999881e+00 1.549280038059999975e-01 4.043742669023999703e+00 4.087779204450000314e+00 4.167875182850999671e+00 8.119007771747000390e+00 8.088696143042000131e+00 4.134430319296000356e+00 7.988010662348999702e+00 4.108898070532999824e+00 4.020097452558999862e+00 4.138058548087999888e+00 1.583307008899999951e-02 4.162632365646000032e+00 4.245132736004999963e+00 3.987815530039000134e+00 2.281409820533999877e+00 6.102606988800999943e+00 2.082833660389999952e+00 2.123746901740999782e+00 6.100333376274999608e+00 6.201582007975999566e+00 6.196693507344999574e+00 6.167525113513000257e+00 1.996496778422000018e+00 6.218499698182999857e+00 6.021139366255000347e+00 6.002869015484000315e+00 2.022600163134999907e+00 1.983302893258999999e+00 1.948623387410000074e+00 2.102100241741999831e+00 2.124073834199999844e+00 6.080974977616000032e+00 6.061249482414000411e+00 2.013409354514000160e+00 1.979526886683000031e+00 6.150232513034000092e+00 1.988475904171999931e+00 6.200947143199000422e+00 1.998867131623000004e+00 2.578571492316000136e+00 8.091871273430999878e+00 8.114050535527999486e+00 2.010602437200999848e+00 2.246799367308999873e+00 2.151252239235999841e+00 8.086390993900000268e+00 1.832038204842000084e+00 2.250297606769000147e+00 2.399290227954999910e+00 4.032312144704000012e+00 4.953275994899999923e-02 1.872181997144999999e+00 6.052409332506000439e+00 2.196165454351000079e+00 9.951644034100000369e-02 6.025402968916999669e+00 2.076304230637000092e+00 6.204022555223000168e+00 8.086212522093999766e+00 1.356749586999999868e-01 6.230146450144999903e+00 2.055395662631999798e+00 2.133543830439000200e+00 4.258069575751999736e+00 1.998971251341000066e+00 2.246841913468999863e+00 6.135148522055000164e+00 4.082761994701000319e+00 8.197228280137000667e+00 6.290786059644999817e+00 6.080357409646000022e+00 1.786998590397999909e+00 4.205508488061999728e+00 5.963512566906000067e+00 6.331952625839000426e+00 1.662595683813999914e+00 8.147292885923999251e+00 4.058783752910000153e+00 1.976511135073999892e+00 1.683926307804999967e+00 6.002858849311000000e+00 8.028974009323999184e+00 2.297771163779000148e+00 5.687647704695000250e+00 2.090867097673999808e+00 4.116239131723999911e+00 4.066324957165999621e+00 1.938957813925999973e+00 6.525662860747000416e+00 6.081758148445000067e+00 7.971154227653999946e+00 5.945943600097000292e+00 6.279813980333000423e+00 5.977714107457999582e+00 5.638214314699999813e-02 4.145290921826999764e+00 6.078946289751000265e+00 2.061465554630999897e+00 5.998411835749999810e+00 4.097248658266000376e+00 1.915363613398000098e+00 6.169177298353999639e+00 5.901915260177999834e+00 4.030472571934000214e+00 4.189975771160000306e+00 6.135251521805000330e+00 6.144483158170999992e+00 6.214626396006000419e+00 4.044238828111000217e+00 6.367127934178999915e+00
1.157137426790000034e-01 7.933905548681999598e+00 5.669015412299999862e-02 7.847474129900000595e-02 7.937631159340999609e+00 4.189654609258999685e+00 8.002733344162999529e+00 4.251362824431000220e+00 8.131571446764999322e+00 1.941982882659999965e-01 3.998975165166000156e+00 4.085056216287999753e+00 4.099730422776000083e+00 5.521538550400000023e-02 8.052169198015999285e+00 4.128546342827999815e+00 7.974877803080000049e+00 4.121375215559000438e+00 3.983478288746999940e+00 4.128356159783000301e+00 2.447928392500000119e-02 4.172463263725999738e+00 4.255768666577999682e+00 3.950378267007999877e+00 2.284837298460999921e+00 6.077049463415000297e+00 2.121159555995999924e+00 2.141277034564000203e+00 6.118545365405999803e+00 6.197014714459999851e+00 6.228702930305000329e+00 6.134742439996999863e+00 1.974019735648999907e+00 6.214129573872000378e+00 6.030011652337000427e+00 5.969552052599000014e+00 2.014076108059000170e+00 1.985486657215000061e+00 1.919415322777999977e+00 2.111327766617999924e+00 2.140825682716000156e+00 6.058977618127999953e+00 6.021132948505999671e+00 2.027822653553000176e+00 2.010925586077000116e+00 6.142724677974999992e+00 1.962219929746999991e+00 6.184909084730000117e+00 1.906089053429000035e+00 2.707377064710999814e+00 8.111576534658000881e+00 8.148349597752000406e+00 2.005237480386000026e+00 2.322848183626000207e+00 2.095849793960999907e+00 8.853970142999999932e-03 1.771998550188000010e+00 2.309592268535999970e+00 2.485496597836999833e+00 4.025710486309000302e+00 8.134380571660999593e+00 1.819299757493000103e+00 5.981222919566000051e+00 2.263345123491999900e+00 8.081202730182999616e+00 6.001761310000000016e+00 2.097455439826999779e+00 6.201995764673999822e+00 8.068072156887000190e+00 8.167505018935999672e+00 6.262907520559999774e+00 2.055229244131000055e+00 2.147047250537000185e+00 4.245691954119999778e+00 1.987143776427999997e+00 2.273278115482999961e+00 6.206869929656999574e+00 3.974403704393000059e+00 8.167722401303999291e+00 6.340557217863000083e+00 6.054061496995999825e+00 1.736176735739000110e+00 4.213142367100999763e+00 5.949653442209999810e+00 6.409753054910999559e+00 1.497047861480000019e+00 8.120178063481999331e+00 4.063196175895000373e+00 1.971287837708000090e+00 1.542706950389999943e+00 5.976854241666000433e+00 8.000191649801999816e+00 2.326155259949000076e+00 5.582426431843999559e+00 2.128257146035000158e+00 4.045185027445000081e+00 4.030984248793999747e+00 1.962674654214999981e+00 6.682615864033000008e+00 6.078359251635999883e+00 7.932814927783000236e+00 5.898586145550999582e+00 6.320178961982000132e+00 6.094534062175999800e+00 1.373170709719999938e-01 4.151607203334999774e+00 6.100528770835000003e+00 2.034766483097000034e+00 5.971705473787999985e+00 4.041270050177000250e+00 1.876133064141999984e+00 6.182807879411000407e+00 5.818878995398000242e+00 4.099504877242000411e+00 4.146037942050999625e+00 6.046306395518000087e+00 6.144175885199000042e+00 6.251241707846999951e+00 3.997728674912000013e+00 6.395656645973000209e+00
1.292376554830000079e-01 7.906805161100000312e+00 6.904955634800000186e-02 8.027716083300000249e-02 7.907994810369999961e+00 4.211981805113000021e+00 7.949785837970000379e+00 4.261690055649999920e+00 8.118332016502000315e+00 2.344885566159999879e-01 3.953954276508000021e+00 4.079876735703999557e+00 4.100502712708999908e+00 8.248416306799999376e-02 8.016645810693999508e+00 4.124598592578999856e+00 7.961258994240999698e+00 4.133042743875000369e+00 3.946054054460999883e+00 4.117978725696000097e+00 3.478125946499999871e-02 4.181963286119000145e+00 4.264372403080000318e+00 3.911652090431000151e+00 2.274488484084999929e+00 6.055029957348000202e+00 2.148266122986000060e+00 2.165597106388999826e+00 6.137474591604999752e+00 6.198479752739999959e+00 6.264758912781999811e+00 6.105446946146000364e+00 1.954779844139000078e+00 6.202680968192000321e+00 6.042443914635000191e+00 5.934717044006999842e+00 2.007435224578999922e+00 2.001887323666000196e+00 1.892404122799000055e+00 2.112862398778999840e+00 2.154455796404000090e+00 6.041172133829999957e+00 5.987073116981999732e+00 2.036211093817000162e+00 2.051003956568000053e+00 6.127660357565999583e+00 1.937679634330000011e+00 6.154789164079000230e+00 1.776937180837999897e+00 2.766723797235000060e+00 8.117495282286000702e+00 3.300820579600000082e-02 2.008130721789000095e+00 2.396720132472000220e+00 2.175696400046999823e+00 8.077399633214000119e+00 1.727950544006999989e+00 2.363247934782000126e+00 2.511324553706999918e+00 4.011512507036999686e+00 8.114915935120000867e+00 1.774609235940999952e+00 5.870408899353999566e+00 2.237983698787000097e+00 7.978901287116999974e+00 5.976933712606999904e+00 2.115328699343999919e+00 6.163918347105999729e+00 8.001798145682000651e+00 8.044959225989000373e+00 6.270580780465000004e+00 2.074411391457000153e+00 2.153813034646999913e+00 4.236691816266000110e+00 1.998717665947999933e+00 2.260557011392999804e+00 6.282197677214999665e+00 3.897530565777000078e+00 8.138778403689000740e+00 6.355555825565000205e+00 6.032752285155000394e+00 1.708250226939999949e+00 4.272851745778000421e+00 5.943720671748000228e+00 6.460525765747999749e+00 1.319320417783000021e+00 1.171051006400000011e-02 4.048925112162000239e+00 1.978413732784999990e+00 1.399392374215000068e+00 5.973005088057999679e+00 7.935128779851000402e+00 2.354435752565999795e+00 5.499977690525000185e+00 2.166305786525000165e+00 4.021426487559000229e+00 4.032224517926000118e+00 2.021651033148000209e+00 6.788795993563000231e+00 6.052319741137000442e+00 7.891281347119999623e+00 5.835024043294000151e+00 6.347784413551999627e+00 6.249639097293999690e+00 1.642087096079999919e-01 4.154107845721999759e+00 6.114359865211000056e+00 2.006502053159000099e+00 5.963491241643000151e+00 4.034126487301000097e+00 1.835021989384999941e+00 6.199106493102999771e+00 5.734675481976999833e+00 4.207659494611999840e+00 4.094537105018000389e+00 5.922475342129000175e+00 6.127319826875999631e+00 6.290840669127000240e+00 4.012516993634999807e+00 6.406118338469999784e+00
1.435727198189999942e-01 7.877921146424999854e+00 8.096977745599999443e-02 8.221643106100000320e-02 7.878945954100999849e+00 4.233136139046999702e+00 7.901407555998999577e+00 4.273819075045000027e+00 8.106753570672999842e+00 2.750000116849999898e-01 3.910957818143999898e+00 4.074079102367999639e+00 4.103394385807000333e+00 1.039907218279999962e-01 7.987485235921999660e+00 4.123724159350000029e+00 7.948994398980000042e+00 4.143135957039000061e+00 3.909359891853000146e+00 4.110355814033000321e+00 4.623452489499999679e-02 4.191830339172000208e+00 4.273928833857000065e+00 3.873863649226000128e+00 2.266887105284999926e+00 6.053515398545999737e+00 2.139903286565000062e+00 2.192665140029999904e+00 6.142642970474000208e+00 6.206702450531000004e+00 6.277289831829000022e+00 6.088603889193000107e+00 1.941619474461999895e+00 6.193818102865000341e+00 6.043992376998000182e+00 5.926524625376999644e+00 2.001666545782999851e+00 2.027022610379999978e+00 1.869231682766000047e+00 2.106212214134000060e+00 2.169279419270000009e+00 6.031586332286000385e+00 5.964321660589999574e+00 2.030200678658999891e+00 2.090903455393999799e+00 6.110980721608999744e+00 1.919720743380999961e+00 6.124769028093999701e+00 1.637414804622000064e+00 2.733804667674000211e+00 8.074787721690000808e+00 8.125621763135999487e+00 2.021698930496000024e+00 2.461256085336999799e+00 2.114870542044000157e+00 8.387654426999999191e-03 1.705458843521000079e+00 2.406692046949999941e+00 2.462608783218000141e+00 4.021137794070000382e+00 3.098764191999999959e-02 1.754519358297000009e+00 5.734390732772999932e+00 2.209094168066000119e+00 8.015504928871999724e+00 5.949236687082000152e+00 2.119695716954999920e+00 6.093760156677999973e+00 7.952833777843999918e+00 8.036789874819000090e+00 6.243555099482000159e+00 2.126278672839999828e+00 2.148480117431000203e+00 4.220402865073999976e+00 2.039814836436999901e+00 2.205282180942000014e+00 6.345974803689999888e+00 3.904195318100000200e+00 8.112496689226999180e+00 6.340699483526000435e+00 6.025735306167000260e+00 1.702136252549000028e+00 4.287739289896999928e+00 5.929829168859000355e+00 6.466221273526000068e+00 1.265030150477999937e+00 3.873406912999999979e-02 4.040766849697000396e+00 1.999872157478000068e+00 1.293629732422999945e+00 5.979042572100000008e+00 7.905583211547000388e+00 2.411308430886999865e+00 5.447347616927999958e+00 2.194088536909000187e+00 4.068090244517000187e+00 4.043867197370000000e+00 2.112942488739999902e+00 6.791864592830999747e+00 5.984495798194999772e+00 7.924135467234999730e+00 5.755329807355000327e+00 6.355863432549000436e+00 6.407629298333000101e+00 1.069264904640000041e-01 4.124853475429000049e+00 6.106159000916999702e+00 1.991323171120999991e+00 5.975577659497999683e+00 4.063503591134000281e+00 1.796179606227999992e+00 6.209813809036999643e+00 5.648541575534999915e+00 4.249889505751999863e+00 4.065793579552999581e+00 5.793096136003000218e+00 6.081795759932999701e+00 6.324302558182999690e+00 4.023319637762000411e+00 6.406141750738999718e+00
1.589758534980000027e-01 7.848999530701999738e+00 9.175286584300000603e-02 8.538842621999999383e-02 7.851309376747999558e+00 4.252546155296999864e+00 7.858586423702999646e+00 4.288143371115999969e+00 8.096921164399999427e+00 3.148964166830000022e-01 3.871337813537000017e+00 4.068380498819999858e+00 4.108921033298999603e+00 1.202232350410000067e-01 7.965204183918999981e+00 4.124413426689000239e+00 7.939059421572999931e+00 4.151157104828000044e+00 3.874551596452000091e+00 4.106569074304999845e+00 5.770395704200000087e-02 4.201155914162000293e+00 4.285209328236000204e+00 3.838739442286999815e+00 2.260264344003000136e+00 6.079398028235999618e+00 2.110532997632000196e+00 2.214703718117999820e+00 6.130779059736999770e+00 6.199288168278999756e+00 6.266277504628000372e+00 6.093043890180999789e+00 1.926153517067999976e+00 6.194429640963000416e+00 6.029816313685000040e+00 5.954461871331999667e+00 1.993077670179999927e+00 2.055114933146000133e+00 1.851925369081999895e+00 2.092313099211999816e+00 2.184911919511999923e+00 6.029261306410999666e+00 5.955518760128000189e+00 2.009424050878000134e+00 2.126677416811999954e+00 6.099078822312000270e+00 1.913457149949999936e+00 6.100644061535000162e+00 1.516211387196999993e+00 2.611126813104000188e+00 8.016517515641000458e+00 8.058761605101999237e+00 2.040091201875999793e+00 2.496435087321000168e+00 2.120515584604000026e+00 2.959887216999999848e-02 1.701128133294000033e+00 2.439871047718999986e+00 2.350031719540000008e+00 4.029475520633000407e+00 6.250691126599999814e-02 1.775344354855000084e+00 5.601935919281999965e+00 2.131611415306000179e+00 1.035836504579999984e-01 5.942556371788000114e+00 2.109162575930000116e+00 6.010937312507000030e+00 7.985077339203000335e+00 8.129911210990000470e+00 6.181852731710000270e+00 2.183173423732999829e+00 2.129658228014999821e+00 4.191468492602999696e+00 2.096599269608999894e+00 2.123872066067999942e+00 6.378967587464999589e+00 3.953197971980999981e+00 8.081140506617000341e+00 6.310429561939000287e+00 6.042243893146999945e+00 1.721340381227999927e+00 4.250200460601999630e+00 5.907864005687000208e+00 6.411252234048999910e+00 1.317997376162000078e+00 4.677289715199999670e-02 4.045556939721000056e+00 2.032113755546999911e+00 1.266415851946000037e+00 5.987375258305999814e+00 7.927862747687999700e+00 2.491682891987999859e+00 5.432110999547999697e+00 2.208153712840000171e+00 4.143213371862000116e+00 4.065000568089000232e+00 2.211808142923000098e+00 6.690006411219999727e+00 5.884332414609000139e+00 8.002836602425999146e+00 5.674171037880999968e+00 6.333791094043999870e+00 6.527647982357000167e+00 3.039325405400000041e-02 4.081500764413999782e+00 6.080089984665000280e+00 1.988230284911000068e+00 5.999770352381999849e+00 4.097470781328000022e+00 1.765301985085999892e+00 6.208930162358000437e+00 5.575121522804000307e+00 4.183575261237000298e+00 4.073595144199999574e+00 5.693719925748999877e+00 6.012174483033000172e+00 6.344397165252999571e+00 4.011196043281000101e+00 6.402037671705000044e+00
1.752704529559999946e-01 7.822308677495000140e+00 1.013654569389999954e-01 9.040226740199999722e-02 7.824911134406000279e+00 4.268460240093999936e+00 7.821472770157000376e+00 4.302638159522000016e+00 8.088484868039000020e+00 3.526927171720000143e-01 3.835565257954999918e+00 4.061607031063999784e+00 4.116394276525999985e+00 1.344789467589999898e-01 7.947514650527000235e+00 4.123499966733000122e+00 7.931959624177999935e+00 4.156066929149999645e+00 3.842569948570000005e+00 4.105090896999000094e+00 6.825919466799999780e-02 4.208873658397999762e+00 4.296371823522999733e+00 3.807020119514000100e+00 2.237811084426999830e+00 6.124484676188999721e+00 2.086953222152999832e+00 2.229530967665000141e+00 6.103623461810999906e+00 6.170675626222999810e+00 6.258727695343000441e+00 6.119584936625000360e+00 1.917142297577000054e+00 6.204149542809999751e+00 5.995314829326000350e+00 5.981924499606000367e+00 1.979445604889999988e+00 2.082822827999000204e+00 1.844252529692999909e+00 2.075150040077999858e+00 2.198120125717999862e+00 6.029220529773000159e+00 5.961149151058999784e+00 1.978232835657999900e+00 2.158246248885999918e+00 6.094906232669999646e+00 1.923893378740000104e+00 6.083311416905000435e+00 1.422054471307000023e+00 2.429135283449999960e+00 7.995235392610999803e+00 7.987490443322999845e+00 2.051877852155000070e+00 2.482348933648999889e+00 2.122960488607999796e+00 5.530515621800000114e-02 1.707606960976999932e+00 2.460714415362000196e+00 2.199190159052000215e+00 3.990019504130000172e+00 3.371536533700000143e-02 1.840232397881000015e+00 5.495946638819999563e+00 2.154629855992999943e+00 1.891058570170000008e-01 5.988385736336000242e+00 2.088889225797000204e+00 5.943331324504000257e+00 8.047110617972000668e+00 9.308515340499999569e-02 6.106184793177999559e+00 2.187194095744999789e+00 2.102508619876000129e+00 4.167009857030000042e+00 2.144994549184000121e+00 2.047495421788999792e+00 6.368527020650000203e+00 3.995843633598000100e+00 8.043129282600000707e+00 6.275789744606999676e+00 6.087172299498999628e+00 1.773636059510000029e+00 4.244022132209000375e+00 5.897236458535999759e+00 6.328430831868000261e+00 1.444913971372999928e+00 4.725769327999999880e-02 4.041373934841000271e+00 2.065631227792999791e+00 1.321812732578000027e+00 6.003665223032999876e+00 7.957066603127000093e+00 2.555289193415999804e+00 5.451443390702999992e+00 2.219445439297000000e+00 4.170306281890000299e+00 4.088295628464000409e+00 2.294810553912999929e+00 6.536190107502999780e+00 5.789966494176000289e+00 8.016349416245999393e+00 5.627889968264000231e+00 6.275640098684999835e+00 6.611971869631999787e+00 8.095083683640000416e+00 4.072340940938000031e+00 6.055107696385999994e+00 1.985766982319999929e+00 6.023874748045000338e+00 4.134534814002999603e+00 1.739313032651000013e+00 6.195469053284999639e+00 5.557908330222000259e+00 4.101033795123999681e+00 4.087058462807999781e+00 5.658854323166999656e+00 5.945539923492000334e+00 6.347043093279999937e+00 4.025312495339999685e+00 6.396054428302000439e+00
1.924197241139999903e-01 7.799922356390999845e+00 1.098647749189999995e-01 9.678989527999999620e-02 7.800371940303000073e+00 4.280436308368000375e+00 7.790852454304999952e+00 4.315547800286999802e+00 8.083333694909999423e+00 3.867577792299999873e-01 3.804767387882999952e+00 4.052065239869000024e+00 4.125533375432000049e+00 1.490273392879999936e-01 7.933627075901999781e+00 4.118809262040000085e+00 7.928715563799999977e+00 4.156960416796000146e+00 3.815065073333999912e+00 4.105134059910000133e+00 7.809157071199999967e-02 4.215352230278000434e+00 4.306071417717999950e+00 3.778782696603999902e+00 2.197529670789000189e+00 6.177036285027999618e+00 2.076555759891999919e+00 2.243242013284000080e+00 6.062598306342000143e+00 6.129961703041000298e+00 6.259509453318999661e+00 6.151866526266999813e+00 1.927265623523999993e+00 6.213116152728000330e+00 5.941627252133000248e+00 5.986390958550000363e+00 1.962627111014999981e+00 2.107971695753999786e+00 1.850844772207999922e+00 2.059919898622999845e+00 2.205846533369999918e+00 6.026665568950999585e+00 5.978295063042000201e+00 1.944324090140000072e+00 2.184116883884000160e+00 6.097737528306000243e+00 1.949349821396999971e+00 6.072605533245000409e+00 1.352972086275000096e+00 2.228715069959999795e+00 8.003806735221999702e+00 7.952304649951999593e+00 2.052767633009000114e+00 2.423007110211000015e+00 2.113251698092999842e+00 4.504614684199999969e-02 1.720387323735000029e+00 2.453142654089000008e+00 2.038238712900000138e+00 3.918244907990000137e+00 8.055317218331000007e+00 1.934196959629000068e+00 5.431507755274999738e+00 2.197231078085999822e+00 1.291265018409999965e-01 6.090757571300000173e+00 2.063488025034000195e+00 5.916842407252000058e+00 8.073613875839999565e+00 7.974956056199999921e-02 6.054419061229999954e+00 2.112907485663999996e+00 2.074455706455000215e+00 4.164676015063999870e+00 2.167583494741999850e+00 1.998316365753000090e+00 6.319206509536000382e+00 4.032053427919000121e+00 8.019655737591000033e+00 6.248967257543999843e+00 6.153779226953999704e+00 1.851531008437999892e+00 4.292804535996999959e+00 5.909563926965000213e+00 6.253100701718000032e+00 1.595023230005000014e+00 3.958787344700000210e-02 4.005670078701999870e+00 2.093377397992000066e+00 1.430954792841000023e+00 6.035397817475000259e+00 7.958160643941999624e+00 2.571344125103999900e+00 5.497127449415000200e+00 2.240181501454999946e+00 4.115112433782000423e+00 4.079397437989999986e+00 2.358341212723999991e+00 6.385596426200000231e+00 5.748285668097000034e+00 7.944381328976000134e+00 5.659280363159999716e+00 6.163723998646999824e+00 6.538361796899000211e+00 1.470827479100000022e-02 4.095639100527000309e+00 6.047718482386000183e+00 1.980583703621999980e+00 6.041484137918000208e+00 4.185352977532000196e+00 1.713454594087999938e+00 6.177883603567000392e+00 5.614648429746000424e+00 4.058574343953999630e+00 4.070999273135000429e+00 5.704331432596999818e+00 5.909780571128999682e+00 6.327063813431999861e+00 4.095368797020999985e+00 6.383257662915999830e+00