-3.414109327569999732e+04
-3.414006804920000286e+04
-3.413997562650000327e+04
-3.414027367870000307e+04
-3.414041696010000305e+04
-3.413955901859999722e+04
-3.413939670199999819e+04
-3.413952649750000273e+04
-3.413908039609999832e+04
-3.413936705239999719e+04
-3.413913828340000327e+04
-3.413872500500000024e+04
-3.413834541210000316e+04
-3.413875215130000288e+04
-3.413866702320000331e+04
-3.413848520170000120e+04
-3.413846565459999692e+04
-3.413880093699999998e+04
-3.413790743089999887e+04
-3.413708863600000041e+04
-3.413660076390000177e+04
-3.413595732390000194e+04
-3.413622554400000081e+04
-3.413636449909999646e+04
-3.413662390050000249e+04
-3.413619065180000325e+04
-3.413674178560000291e+04
-3.413720235769999999e+04
-3.413732430130000284e+04
-3.413679389079999964e+04
-3.413636829900000157e+04
-3.413691906890000246e+04
-3.413674409269999887e+04
-3.413632662900000287e+04
-3.413645970120000129e+04
-3.413693125989999680e+04
-3.413719942560000345e+04
-3.413736803710000095e+04
-3.413782182369999646e+04
-3.413862753740000335e+04
-3.413913448369999969e+04
-3.413937111639999785e+04
-3.413866932749999978e+04
-3.413846217939999769e+04
-3.413865089969999826e+04
-3.413898578260000068e+04
-3.413916057490000094e+04
-3.413901764959999855e+04
-3.413906950920000236e+04
-3.413911098160000256e+04
-3.413974376620000112e+04
-3.413995798849999846e+04
-3.413984885460000078e+04
-3.413986727149999933e+04
-3.413975076879999688e+04
-3.413948406850000174e+04
-3.413888168679999944e+04
-3.413941574430000037e+04
-3.413923436059999949e+04
-3.413927409400000033e+04
-3.413915583250000054e+04
-3.413912398379999649e+04
-3.413898051809999743e+04
-3.413946375830000034e+04
-3.413931984309999825e+04
-3.413894130060000316e+04
-3.413894274739999673e+04
-3.413793454680000286e+04
-3.413777579529999639e+04
-3.413752367180000147e+04
-3.413750107269999717e+04
-3.413741883229999803e+04
-3.413708697940000275e+04
-3.413654411540000001e+04
-3.413651759199999651e+04
-3.413725048850000167e+04
-3.413744612610000331e+04
-3.413749856089999957e+04
-3.413676087250000273e+04
-3.413658227649999753e+04
-3.413710480039999675e+04
-3.413716470560000016e+04
-3.413766152980000334e+04
-3.413687684279999667e+04
-3.413681265610000264e+04
-3.413787630609999906e+04
-3.413835162549999950e+04
-3.413790118349999830e+04
-3.413785567830000218e+04
-3.413771861730000091e+04
-3.413769565609999700e+04
-3.413780289929999708e+04
-3.413837974399999803e+04
-3.413931653830000141e+04
-3.413926615640000091e+04
-3.413922918090000167e+04
-3.413912794990000111e+04
-3.413984329270000308e+04
-3.413915925530000095e+04
-3.413926752120000310e+04
-3.413932806500000152e+04
-3.413977361309999833e+04
-3.413944470559999900e+04
-3.413924688710000191e+04
-3.413951137020000169e+04
-3.413927267240000219e+04
-3.413927316650000284e+04
-3.413958983630000148e+04
-3.413970004309999786e+04
-3.413921928849999676e+04
-3.413898584049999772e+04
-3.413963268270000117e+04
-3.413904376619999675e+04
-3.413874449499999901e+04
-3.413862577109999984e+04
-3.413819544470000255e+04
-3.413821523500000330e+04
-3.413851337649999914e+04
-3.413872334979999869e+04
-3.413794228440000006e+04
-3.413755989779999800e+04
-3.413719515479999973e+04
-3.413689899619999778e+04
-3.413717730360000132e+04
-3.413801663250000274e+04
-3.413802676500000234e+04
-3.413767513480000343e+04
-3.413752213440000196e+04
-3.413651000000000204e+04
-3.413627804420000029e+04
-3.413638417119999940e+04
-3.413795360510000319e+04
-3.413757304909999948e+04
-3.413734971049999876e+04
-3.413709050549999665e+04
-3.413787058010000328e+04
-3.413748528590000205e+04
-3.413743689219999942e+04
-3.413742991030000121e+04
-3.413794899389999773e+04
-3.413765037940000184e+04
-3.413789429640000162e+04
-3.413859842119999666e+04
-3.413853382370000327e+04
-3.413820817099999840e+04
-3.413826160620000155e+04
-3.413862920109999686e+04
-3.413909612380000181e+04
-3.413908366199999728e+04
-3.413883213840000099e+04
-3.413901626470000338e+04
-3.413946365949999745e+04
-3.413974891180000122e+04
-3.413947815789999731e+04
-3.413932724369999778e+04
-3.413955539370000042e+04
-3.413879051430000254e+04
-3.413902204550000170e+04
-3.413933405409999978e+04
-3.413893323529999907e+04
-3.413807699940000020e+04
-3.413857241380000050e+04
-3.413895755050000298e+04
-3.413940563709999697e+04
-3.413910670160000154e+04
-3.413846899459999986e+04
-3.413895590390000143e+04
-3.413860769469999650e+04
-3.413836372880000272e+04
-3.413830344979999791e+04
-3.413805460689999745e+04
-3.413745145130000310e+04
-3.413721930499999871e+04
-3.413788384139999835e+04
-3.413811710190000304e+04
-3.413828853130000061e+04
-3.413747730710000178e+04
-3.413685429119999753e+04
-3.413656697010000062e+04
-3.413773745860000054e+04
-3.413679057389999798e+04
-3.413714783149999857e+04
-3.413737746899999911e+04
-3.413737883529999817e+04
-3.413715317859999777e+04
-3.413727807459999894e+04
-3.413676116180000099e+04
-3.413666463600000134e+04
-3.413725636289999966e+04
-3.413814741540000250e+04
-3.413872747540000273e+04
-3.413815146739999909e+04
-3.413750073240000347e+04
-3.413742346299999917e+04
-3.413797583199999644e+04
-3.413852461420000327e+04
-3.413892209339999681e+04
-3.413848531199999707e+04
-3.413792246690000320e+04
-3.413846052030000283e+04
-3.413900795179999841e+04
-3.413915417460000026e+04
-3.413861049549999734e+04
-3.413920154290000210e+04
-3.413859739070000069e+04
-3.413886867440000060e+04
-3.413950313260000257e+04
-3.413923968259999674e+04
-3.413927649019999808e+04
-3.413966506919999665e+04
-3.413951334640000277e+04
-3.413868946480000159e+04
-3.413822944629999984e+04
-3.413840011390000291e+04
-3.413881407429999672e+04
-3.413868649490000098e+04
-3.413878629509999882e+04
-3.413889670309999929e+04
-3.413834110830000282e+04
-3.413819431900000200e+04
-3.413815603830000327e+04
