9.234722820999999651e-03 -1.731905678669999893e-01 -1.111628414570000056e-01 -2.614684630499999884e-02 -1.586384832459999950e-01 7.887581982499999866e-02 1.649184400000000073e-03 2.019673739879999930e-01 -4.696212540099999749e-02 4.269981644299999934e-02 1.831189196759999971e-01 -2.463045598999999853e-03 -3.722435629999999935e-04 -7.011292950599999629e-02 -1.161300668409999959e-01 6.668812068000000426e-02 5.614813183000000318e-03 7.869396771900000198e-02 7.446666408000000327e-03 1.066206815969999999e-01 4.695774046199999857e-02 4.096722254999999972e-03 1.605631054200000116e-02 -9.768712555599999570e-02 -2.044690257740000017e-01 -1.284817644010000093e-01 7.257846121000000039e-02 -1.641590121690000015e-01 3.402165200699999725e-02 -2.999413036799999932e-02 1.198980369869999951e-01 -3.390566287249999755e-01 -7.395356406700000218e-02 1.057913217510000059e-01 3.124974413859999967e-01 7.899647351600000422e-02 3.023380834839999864e-01 7.758858299099999356e-02 -3.728227795499999830e-02 -3.833957438200000234e-02 1.474094781900000053e-02 -9.294243915100000586e-02 -2.352966809450000030e-01 2.561909081739999761e-01 5.502354251590000356e-01 1.127898921500000012e-01 -1.017493902280000029e-01 -2.257594706099999918e-02 -2.665846622700000085e-02 5.068620600100000317e-02 -6.611353310600000255e-02 -1.172676100989999970e-01 1.300285446499999976e-02 2.463969300699999851e-02 2.944267488799999846e-02 1.000128506660000055e-01 -1.839822476800000162e-02 1.824067169699999935e-02 5.397659485100000237e-02 2.546097798590000183e-01 1.483594551849999887e-01 2.061174618899999991e-02 -3.691208130000000207e-04 -2.389238634999999930e-02 1.315790121809999880e-01 -1.186824360799999985e-02 4.595197317400000203e-02 4.267309206099999946e-02 1.999043527609999926e-01 -1.547241639349999920e-01 -1.961648289499999878e-02 -6.597142954100000678e-02 1.508584044900000004e-02 -2.291521963750000057e-01 -1.215539943699999945e-02 9.716229229599999961e-02 1.179215636590000005e-01 -1.992220066900000086e-01 5.634149997400000193e-02 7.934445717099999906e-02 -4.794118338999999937e-03 1.054007095099999958e-01 -4.697469525490000075e-01 2.937260825100000000e-02 1.361098871499999939e-02 -2.755703899999999845e-02 -1.159347866939999944e-01 6.595362561900000586e-02 -9.575860360999999266e-03 -2.798224121699999928e-02 1.465601591100000080e-02 1.548340786780000033e-01 -8.466734028000000301e-02 5.869144362599999776e-02 4.893831091100000336e-02 -5.533242156540000289e-01 -4.021714131670000025e-01 8.908125769899999380e-02 8.976618363999999684e-02 4.148666741399999885e-02 3.376172690499999740e-02 5.168206148199999683e-02 2.731825791500000142e-02 1.718845011519999910e-01 2.318921763769999922e-01 -1.364982301990000091e-01 4.963033494500000004e-02 -2.741422566200000036e-02 7.644253722400000395e-02 -1.495912421570000095e-01 1.330412136000000108e-03 -3.316985102000000185e-02 -3.619570660199999956e-02 1.078531477850000059e-01 -1.636011261699999927e-02 -9.072465905899999850e-02 -6.340278528899999377e-02 -7.251604224000000008e-03 -3.629663159270000161e-01 -1.461706863499999919e-02
1.463967722139999927e-01 -5.358682004920000130e-01 -2.867597227600000021e-01 3.242373015000000157e-03 -3.997201296249999758e-01 2.924725668640000276e-01 -3.193864568000000237e-02 5.186934686690000129e-01 1.765473904800000104e-01 1.513741272090000090e-01 4.120297692470000217e-01 -2.732249146690000074e-01 -5.914233616399999782e-02 -1.077903626160000017e-01 -5.837980115490000177e-01 1.937350214530000059e-01 1.704618735799999854e-02 5.960005408999999865e-01 2.207613654109999990e-01 1.879069831509999899e-01 2.749287367739999821e-01 1.116693640710000046e-01 2.516359586699999998e-02 -2.962204114109999731e-01 -8.607666002320000231e-01 -5.556428911930000325e-01 4.957241559930000152e-01 1.324443040559999951e-01 1.459083051591000046e+00 -5.069645071789999902e-01 5.219046247419999451e-01 -1.780863417903999935e+00 -1.409180281140000046e-01 -1.753373138640000051e-01 1.286225758952999954e+00 1.791194983630000070e-01 -2.632772668700000124e-02 3.069853267970000243e-01 -4.109908241199999868e-02 3.960238595269999773e-01 -4.508236654789999909e-01 -3.355039833180000208e-01 -8.266908486770000453e-01 1.113914475425000106e+00 2.621453491275000047e+00 6.005883412370000007e-01 -2.893572812810000228e-01 -7.828740720919999951e-01 -2.494956564830000112e-01 2.067920992049999962e-01 -6.849527535739999839e-01 4.810953432669999863e-01 -1.802062668300000170e-02 1.485224696050000126e-01 2.602871529899999925e-02 1.957234697549999902e-01 -4.152360610900000110e-02 3.088658125099999832e-02 2.647537731569999941e-01 1.516707676915000080e+00 -1.067256811090000063e-01 1.368651445869999983e-01 -1.071709394900000056e-01 -1.721907867659999980e-01 1.340521098939999878e-01 6.692187819900000112e-02 2.898115275750000053e-01 6.823467319600000358e-02 9.255347387100000267e-01 -7.487748159410000381e-01 6.094368349200000173e-02 -9.327378627299999503e-02 1.551119919699999947e-02 -5.308855121900000196e-01 -1.055651887739999933e-01 9.451676732800000369e-02 5.555552517790000033e-01 -1.334423646402999930e+00 -1.883445202940000063e-01 2.525188668150000204e-01 -8.625015185899999326e-02 3.169637719569999845e-01 -2.547487167277000086e+00 2.196259419540000091e-01 1.607179043349999947e-01 -2.614176957470000229e-01 -1.366614303273999909e+00 8.471553578489999792e-01 2.501533048099999906e-02 -1.015637872120000035e-01 1.525656133559999961e-01 9.833733784339999673e-01 -3.447774688449999902e-01 2.712396319570000158e-01 2.128196775500000026e-01 -1.570243243413999901e+00 -1.980551322366000067e+00 4.277874154870000001e-01 4.647797700849999880e-01 4.229210384939999789e-01 7.199902688210000345e-01 2.884035080340000001e-01 1.844884314380000057e-01 9.787874143139999594e-01 9.482962534640000385e-01 -3.606327627450000017e-01 2.611831246729999778e-01 -2.154914845570000126e-01 1.793754332849999966e-01 -9.296443651210000159e-01 6.772985430800000650e-02 1.256387309120000073e-01 -1.726576753109999862e-01 1.840543998689999905e-01 -4.646568728689999817e-01 -5.036102158520000538e-01 9.175613251999999859e-03 1.745196894419999978e-01 -1.727655091928999909e+00 -1.767853917549999931e-01
1.485036643410000134e-01 -5.653909338489999659e-01 -2.339994875039999866e-01 2.439940502699999847e-02 -3.446877439509999919e-01 2.570768371659999940e-01 1.280443336390000020e-01 3.763164555890000096e-01 2.537160113890000179e-01 3.165433772430000237e-01 2.874672989340000262e-01 -3.572736099239999796e-01 -6.273379076399999976e-02 3.880651615499999818e-02 -6.786571671069999701e-01 2.755300750720000025e-01 2.091042058489999966e-01 7.508158734930000522e-01 2.258523784470000129e-01 -6.177781160399999777e-02 3.122118525279999890e-01 7.985900558700000096e-02 -2.698484059390000023e-01 -2.734256207749999890e-01 -1.358972078771000014e+00 -7.005627802799999637e-01 7.681396960880000346e-01 2.326635699750000119e-01 8.618803075469999575e-01 -9.837791775680000406e-01 7.632619329590000223e-01 -1.817315652076000099e+00 -2.433736356769999887e-01 -4.586793253550000005e-01 1.137449022995000059e+00 2.541415922149999895e-01 -2.172641050000000129e-03 8.522770446599999827e-01 1.371648490830000011e-01 4.329489310760000209e-01 -2.870985436499999890e-02 -3.431448393100000049e-01 -7.840806964869999618e-01 1.416125222116999982e+00 2.886562720365999812e+00 6.191972068700000303e-02 -1.997773652079999906e-01 -1.860914481753999983e+00 -5.105410207410000512e-01 -1.619095457900000118e-02 4.642503609649999974e-01 8.465001975260000311e-01 -7.449855142999999881e-03 1.449288291080000068e-01 1.008060216199999949e-02 4.479778096999999931e-02 -5.106688019000000210e-03 -7.825265216000000523e-03 4.127104162100000279e-02 3.231269487069999835e-01 -1.000220367108999975e+00 6.073509991800000313e-02 -2.696378269940000183e-01 -3.348974106100000014e-01 -1.456610691624000031e+00 1.396378028240000124e-01 3.481638950009999789e-01 -8.214645151900000497e-02 5.709087325730000106e-01 -1.179271127533999985e+00 8.193046784700000473e-02 -6.342034682500000131e-02 -1.083133851200000081e-02 -4.419218467259999894e-01 -8.376358928299999784e-02 -3.960262967400000195e-02 6.822507096919999681e-01 -1.238545037578000052e+00 -2.171522898179999994e-01 1.647420910019999907e-01 -1.113684129490000035e-01 3.849211335559999947e-01 -6.455397294610000225e-01 3.814464738800000254e-01 3.036989817110000156e-01 -4.581019132699999941e-01 -8.957447331469999829e-01 4.670463857189999790e-01 8.382031320400000485e-02 -1.739563457270000002e-01 2.930557078680000038e-01 1.733796972810000003e-01 -4.560855658110000155e-01 3.837591883570000140e-01 2.440551263059999865e-01 -9.403256553140000307e-01 -5.592515508850000039e-01 5.210426055750000396e-01 4.973216112070000250e-01 5.060841977829999561e-01 1.857494277199999988e-01 2.290339357429999889e-01 1.792268713319999929e-01 1.440555282347000032e+00 8.332812357059999897e-01 -1.510790142299999958e-02 3.626470404939999836e-01 -3.045706675809999875e-01 2.057500284369999932e-01 -6.320746717020000460e-01 6.009589118300000254e-02 2.140297233579999958e-01 -1.851323917609999925e-01 5.713830500169999604e-01 -5.564062622259999813e-01 -7.719533354019999516e-01 6.166369277199999777e-02 2.659023893129999760e-01 -5.812103693650000347e-01 -3.798151081650000260e-01
3.653394559999999930e-02 -4.475436874709999846e-01 -8.477432820399999347e-02 -8.623351232000000394e-03 -1.646017861209999877e-01 7.381078016000000054e-03 4.430201400209999862e-01 5.557018202700000215e-02 2.646131185669999830e-01 3.384145943490000086e-01 9.621105032200000240e-02 -3.843855581880000205e-01 1.881212532399999943e-02 -2.274767264099999964e-02 -2.803759271160000122e-01 4.018890249029999917e-01 3.186514103850000001e-01 4.724054695059999864e-01 9.296577205500000662e-02 -2.579658190960000264e-01 3.121595117779999984e-01 3.312433078500000294e-02 -5.228591157230000341e-01 -1.823328136650000098e-01 -1.429839017664999989e+00 -4.625346022510000155e-01 6.203228681589999516e-01 2.833864507280000056e-01 2.976851743410000029e-01 -5.509966909100000310e-01 8.415038341249999609e-01 -7.035074901790000501e-01 -2.496144515760000127e-01 -5.649789712889999871e-01 7.983561274029999932e-01 1.910441531099999965e-02 1.640947469429999972e-01 1.469418831407999892e+00 2.043443998799999994e-01 -2.681119513469999993e-01 -1.413630357879999966e-01 3.922449018899999695e-02 2.788747780000000107e-02 7.599553542679999829e-01 1.817161502392000028e+00 -4.920870354369999977e-01 -4.263907968999999798e-02 -2.244042009083000000e+00 -6.951789850270000404e-01 -5.503902286199999772e-01 8.678904004520000548e-01 4.085772871530000128e-01 5.711238535100000152e-02 2.515997254199999963e-02 7.117759289999999687e-04 -2.941017583159999949e-01 1.293086052590000090e-01 -2.375990227199999832e-02 -4.824808910580000165e-01 -6.553145996100000481e-01 -4.393591034250000082e-01 -2.435271346100000012e-02 -4.938439886109999843e-01 -4.879125924769999734e-01 -1.880909671778000058e+00 1.043396775949999994e-01 1.965226643499999870e-01 -3.645647067580000122e-01 -5.467446971639999820e-01 -1.180175958760999899e+00 -1.165413668840000055e-01 5.624612622999999867e-02 -3.732335929200000096e-02 -8.279779099299999778e-02 1.127004385319999996e-01 -3.807986841880000028e-01 4.204188572779999911e-01 -4.717516827229999987e-01 -6.211440605000000115e-02 -2.637812768680000142e-01 -3.903490229800000294e-02 3.954045987259999784e-01 1.623363240455999890e+00 3.630170001959999726e-01 1.904870512179999975e-01 -2.645950671869999882e-01 9.020172020019999737e-01 -2.689838029130000030e-01 1.598019669009999866e-01 -2.403163578560000013e-01 4.279363002039999753e-01 -9.930725474670000219e-01 -3.856609553450000005e-01 3.835035466010000005e-01 1.595269503360000063e-01 -8.397381205600000509e-02 8.913175618990000215e-01 5.136401594789999914e-01 8.861277029700000141e-02 1.676265336630000102e-01 -6.195031715850000120e-01 -6.001657416299999853e-02 7.717604605999999617e-03 1.251729902944999973e+00 1.940759665569999903e-01 3.429856306690000078e-01 2.244598346299999936e-01 -2.406837583160000016e-01 2.555941238509999991e-01 2.173727892029999886e-01 1.471560899100000062e-02 1.882555709859999871e-01 -7.668667577899999921e-02 1.002482128390000060e+00 -4.068117738440000242e-01 -7.991084180709999707e-01 -2.089319531099999988e-02 2.077862027310000137e-01 1.155374357051000000e+00 -4.025264486460000124e-01
6.315527809000000270e-03 -5.127744302669999810e-01 6.642196210999999975e-03 -6.842497365300000134e-02 -1.240823367079999934e-01 -3.168389970600000161e-01 6.991149780640000255e-01 -1.163886396999999975e-02 2.078229914320000038e-01 1.208977141439999958e-01 1.474660028239999920e-01 -4.247753983059999738e-01 1.463703083419999884e-01 -6.571050176999999604e-01 5.340005202349999980e-01 5.488767749030000198e-01 1.403015207960000010e-01 -1.028040752879999936e-01 1.123565844000000077e-02 -3.458122411100000154e-02 3.463688603110000042e-01 2.548364502099999956e-02 -3.669104388269999739e-01 -8.697546015300000599e-02 -6.784809107089999625e-01 2.189411775760000123e-01 -5.103659980489999581e-01 3.670342739599999904e-01 1.509019852400000083e-01 4.193729861520000268e-01 3.352306023659999967e-01 3.015557721079999975e-01 1.996185472360000046e-01 -3.215188204050000165e-01 2.520653739900000079e-01 -1.712657003120000021e-01 2.261734184320000063e-01 1.406935216349000095e+00 2.579307366560000259e-01 -7.415892433420000485e-01 -3.531349314850000254e-01 5.137174502269999943e-01 7.202392502790000428e-01 -6.034775621919999944e-01 8.068142279959999996e-01 -6.851471794700000340e-01 1.960378044119999996e-01 -1.250568118891000058e+00 -6.056254614189999774e-01 -1.185255794641000060e+00 -2.631622340479999878e-01 -4.095543845760000190e-01 1.477173394500000125e-01 -4.453448442199999663e-02 -3.497823419300000181e-02 -3.428282272309999823e-01 2.790942400549999980e-01 -9.533524949799999926e-02 -1.030951557440000110e+00 -1.149343455939999953e-01 9.006252728700000487e-01 1.437683928690000057e-01 -6.586167363310000411e-01 -4.099446264719999733e-01 1.597863719129999915e-01 3.248539751999999971e-03 -6.045120577299999826e-02 -6.039886130210000426e-01 -8.965808607099999827e-01 -1.602297664590000004e-01 -4.175342234250000173e-01 3.176123052500000044e-01 -1.056021348090000062e-01 1.078915829250000069e-01 4.087051086910000186e-01 -6.653091245059999936e-01 4.155184663199999739e-02 5.181394295529999638e-01 3.886431799099999973e-02 -6.032582966080000109e-01 1.039783966169999935e-01 3.935578920289999894e-01 9.633953424410000022e-01 1.597730461180000006e-01 -2.899900436010000027e-01 4.506610118730000059e-01 8.175327623639999652e-01 -3.514620348170000019e-01 2.122073762810000042e-01 -4.889071128499999919e-02 4.044326253839999885e-01 -6.671844990969999500e-01 -1.916028221699999853e-02 4.098710811280000255e-01 1.634907366600000037e-02 8.368372438819999815e-01 6.331811410380000504e-01 5.855465464010000121e-01 -8.412328981929999561e-01 -3.728525148519999943e-01 -1.304851163930000058e-01 -2.571391097740000076e-01 -2.126988488169999914e-01 6.193235257639999602e-01 -9.396553223129999743e-01 -3.832297000399999959e-02 -1.229221701619999940e-01 -2.173963229800000146e-02 3.294863500149999846e-01 9.147272816799999484e-01 -2.950115933999999940e-02 5.815131144999999974e-02 1.546393898200000040e-02 8.064044965109999907e-01 -1.297818623239999913e-01 -5.621938464939999491e-01 -2.568084765029999827e-01 6.215744603400000234e-02 1.137712665600000062e+00 -2.880640841630000004e-01
1.358106812880000014e-01 -7.052619492380000077e-01 -1.329855084990000103e-01 6.096346205000000365e-03 -1.618633875390000088e-01 -5.223957323910000117e-01 7.682052107800000362e-01 1.650828301330000136e-01 6.187834250999999994e-03 -9.361747911600000471e-02 3.899675847740000090e-01 -3.083629054270000114e-01 2.626244359129999983e-01 -1.392682769544000054e+00 1.150228657443999936e+00 5.083217712340000194e-01 -6.831425900699999998e-02 -6.000014176739999483e-01 7.900273395199999826e-02 4.542133873240000175e-01 2.234050212560000082e-01 -1.344127487269999865e-01 -1.651655215999999924e-03 1.273526050430000001e-01 2.016578766759999919e-01 9.941146094839999892e-01 -2.025396909948999902e+00 1.108475263959999985e-01 -8.526797438590000278e-01 3.987784283959999732e-01 -1.405661896513999976e+00 5.382301093219999943e-01 3.834447031889999802e-01 7.560429691299999644e-02 -6.985651031830000246e-01 1.328564461083999948e+00 7.264450867600000250e-02 7.468377385969999782e-01 3.540509697840000247e-01 -8.213548966229999859e-01 1.038144275010000062e-01 6.967960508199999570e-01 9.882654460440000177e-01 -1.480627512671000012e+00 -1.698563694109999911e-01 -2.703247604099999757e-01 6.149298990070000137e-01 -4.336513275999999938e-03 -1.495567880529999893e-01 -1.577705724672000098e+00 -9.421565155669999747e-01 -8.255280297670000156e-01 1.802179110259999884e-01 -1.580754386909999920e-01 -6.978160951400000367e-02 6.347173137000000631e-02 3.781956503650000245e-01 -2.042305401720000135e-01 -1.279053987589999997e+00 4.750128428450000051e-01 9.104397720050000364e-01 4.064724100459999878e-01 -4.286763813360000008e-01 -6.200504284999999727e-02 2.560797710910000191e+00 -1.106861167449999933e-01 -2.485762604840000001e-01 -5.662153746360000239e-01 2.503223397759999913e-01 2.111508639328000037e+00 -6.076958482869999623e-01 5.896519827689999937e-01 -2.157075744699999964e-01 -1.462605070040000066e-01 5.058688013719999654e-01 -7.315727998259999865e-01 -2.286826551480000136e-01 1.568405190103999924e+00 3.548882280699999781e-02 -5.332404603329999881e-01 2.149693550150000021e-01 3.526014635470000047e-01 -9.304051003109999884e-01 -1.805697421999999941e-01 -9.571340892309999626e-01 1.476876851983000005e+00 -1.122727348719999990e-01 1.233481918649999981e-01 2.340258272840000098e-01 6.476266304390000395e-01 1.292182678759999925e-01 6.768157874450000389e-01 5.068446527109999877e-01 4.854652596390000019e-01 -1.986230485840000115e-01 1.253226125227999921e+00 1.013126152289999943e-01 5.438661309050000225e-01 -1.828922855757999955e+00 -7.486355342149999537e-01 1.397381410713000038e+00 -2.951278846629999952e-01 -3.520748200489999813e-01 -2.201171926999999796e-03 -1.577981987470999936e+00 -6.159483000869999669e-01 -4.194257006839999802e-01 2.413930012050000129e-01 3.285584967460000172e-01 6.155412673640000554e-01 3.297469461699999854e-02 -1.282408093300000107e-01 -5.172252841999999684e-02 -1.219221882127000001e+00 3.879977177119999787e-01 -8.901474470100000091e-02 -5.163927483629999760e-01 -1.406561013950000105e-01 -1.707643926369999954e-01 -1.998803532910000125e-01
1.697567634649999879e-01 -4.484973698529999830e-01 -3.158330769079999989e-01 2.646886704379999844e-01 -1.024268326999999978e-01 -7.278745099550000264e-01 8.550558269950000456e-01 1.703875841370000033e-01 -1.333433789669999925e-01 -3.063736006660000011e-01 6.498148970520000178e-01 -1.988804329749999933e-01 2.872711263000000126e-01 -1.273649079092999958e+00 1.082373755060999976e+00 8.360932103200000021e-02 4.791627007000000098e-03 -7.589054894850000288e-01 2.958130338220000266e-01 6.166073398979999842e-01 -5.349981280200000189e-02 -4.463406733540000171e-01 8.337238633999999315e-02 4.786191013930000127e-01 1.024399156940000027e-01 1.325512011760999975e+00 -1.084849661532000020e+00 -3.368814444550000120e-01 -9.472246272059999805e-01 -1.005308470919000108e+00 -1.410307600804000083e+00 1.000213010353000032e+00 -2.528101796669999790e-01 4.027552753859999779e-01 -8.419402820750000460e-01 1.963723195435000068e+00 -3.290754479449999881e-01 1.416883016499999870e-01 5.204965564479999696e-01 -7.587284210089999537e-01 4.999861940000000123e-03 5.451876828230000083e-01 1.180595885438000092e+00 -1.461616307422000105e+00 -5.593199872290000041e-01 3.260698052020000182e-01 1.056829076150000102e+00 4.546172155000000048e-01 3.703154455270000200e-01 -1.514870140051000069e+00 -3.158451536029999729e-01 -5.950563226480000134e-01 7.225458789499999979e-02 -5.074357312380000096e-01 -5.107478030300000027e-02 3.727089090010000105e-01 3.018917719190000182e-01 -1.935456917920000131e-01 -1.059810138300999904e+00 -7.868377540000000628e-03 -2.122071084119999951e-01 6.895006447820000162e-01 8.154625224099999736e-02 3.456078958900000164e-01 1.824974259590999903e+00 3.127431753159999883e-01 -2.662521466960000027e-01 -2.224351186709999928e-01 1.533397254505000085e+00 1.819456737322999951e+00 -6.241744518920000484e-01 1.125464017799999994e-01 -2.411656814500000023e-01 -2.642194187779999814e-01 2.510347849010000076e-01 -4.432068032970000182e-01 -5.732564740029999495e-01 6.516032318690000436e-01 -1.247325776860000041e-01 -2.723246084589999727e-01 3.600702301959999851e-01 3.985288703050000048e-01 -1.038479283128999953e+00 -1.933867087109999994e-01 -1.100253347073000043e+00 1.860730104566000076e+00 -3.637899750040000102e-01 2.373577107079999915e-01 1.677983579690000004e-01 1.379585951886999950e+00 -2.084932440300000037e-02 9.106298662920000453e-01 4.003414174930000069e-01 6.197254638229999779e-01 -2.698356277150000260e-01 4.832901557879999976e-01 1.423262642560000069e-01 7.361852984599999428e-02 -1.846749996842999897e+00 -5.844628706290000419e-01 8.388784088440000009e-01 -6.456166436499999328e-02 -5.147173295069999988e-01 -7.125971472409999841e-01 -2.498345229950000024e-01 -2.995835258189999961e-01 -3.469751971569999816e-01 2.088143777320000116e-01 1.686606329429999884e-01 -1.300221926100000001e-02 1.498328072500000052e-01 -2.310233057119999989e-01 1.346427820570000045e-01 -2.084011774481000057e+00 6.660826820280000282e-01 5.029573511849999568e-01 -4.506679094220000237e-01 -2.702793229150000087e-01 -5.155755753120000451e-01 -9.693850489499999945e-02
1.008226103930000006e-01 3.413894664270000212e-01 -3.078402198440000070e-01 3.968828298809999877e-01 9.539746557400000104e-02 -1.029196031432999980e+00 1.130735798733000008e+00 -2.056713505159999955e-01 2.730681436999999982e-03 -6.613606882229999817e-01 8.679129435019999894e-01 -3.435689046300000049e-01 2.211370538680000053e-01 -4.790658055429999895e-01 7.572318375990000350e-01 -5.144688935410000052e-01 3.475961648890000255e-01 -8.536228643309999864e-01 6.220986715949999857e-01 3.376906257130000144e-01 -2.762739707069999939e-01 -5.727931830760000231e-01 -2.553104362909999758e-01 7.743744845919999786e-01 -8.723145870720000472e-01 8.627058908050000419e-01 4.045023844860000106e-01 -4.358412897860000079e-01 -7.623744082979999614e-01 -1.125430523841000063e+00 2.719081996439999815e-01 1.111980065710000076e+00 3.130722237570000011e-01 4.392750056410000270e-01 -1.056740219259000080e+00 -2.371190484079999938e-01 -5.211459885120000024e-01 -1.414701933649999965e-01 8.987229299160000018e-01 -3.158287966989999918e-01 -3.249750926450000188e-01 1.208464281000000001e-01 1.299292839522999898e+00 -9.865480507839999857e-01 -4.964642361489999822e-01 6.709628907679999754e-01 1.609371340363999980e+00 5.945663384029999943e-01 5.134625324699999549e-01 -9.438541574469999640e-01 7.011789274990000154e-01 -7.588712666999999912e-02 -1.328718633650000092e-01 -8.671770864560000014e-01 -4.570670985499999950e-02 1.096265370619999985e-01 1.692891849660000114e-01 -2.019838472069999946e-01 -5.909116569040000488e-01 -9.042310094940000376e-01 -1.109210464395000040e+00 7.301818017590000487e-01 4.874315509930000068e-01 5.573744155169999548e-01 -1.215812633077999916e+00 8.962701168159999954e-01 -1.583291891780000127e-01 2.744026448920000028e-01 4.418267493090000109e-01 -7.198182341450000132e-01 -2.524867954569999795e-01 -9.566097437570000306e-01 -1.371945520329999890e-01 7.430716738400000576e-02 -1.828958780419999985e-01 1.273843914630000129e-01 -7.667673899450000441e-01 -2.289285584079999991e-01 -1.589053090010000002e-01 -7.983433866000000378e-02 4.592814712659999965e-01 5.505869821219999682e-01 6.127160153299999745e-01 1.947250243810000059e-01 -4.502798909669999960e-01 1.209027948716000056e+00 -1.050802825369999971e-01 -1.593512631640000010e-01 -2.685273772000000125e-03 1.408158082186000026e+00 1.091377648499999992e-01 5.833345148800000296e-02 -3.461964303439999946e-01 5.636652378290000209e-01 -5.872524711999999730e-02 -8.850945126570000099e-01 6.525090996700000368e-02 -3.398880653169999988e-01 -8.255700802230000468e-01 9.847019536999999934e-02 -1.289437947873000034e+00 5.770773731339999824e-01 -7.727863763469999814e-01 -1.342195918400000076e+00 7.947877908010000381e-01 6.549828507699999580e-01 1.897099087799999917e-02 -8.935565228000000304e-03 -3.931722399300000004e-02 4.850290374999999959e-03 9.057951037500000524e-02 -2.395935403589999901e-01 9.895616215850000508e-01 -1.388337367199999894e-01 7.990004410600000384e-02 1.110313981977000042e+00 6.802807812300000478e-02 -3.112140702860000108e-01 4.612904296079999855e-01 -3.561248492900000173e-02
7.682940617899999824e-02 8.156322597089999960e-01 -2.864065624959999945e-01 2.622255135120000191e-01 2.715159126900000275e-01 -1.123364915325000046e+00 1.310623548508000002e+00 -6.165942118320000276e-01 4.195383166839999900e-01 -1.044083500107999996e+00 1.102130093108000031e+00 -6.990276058119999636e-01 1.443657968919999923e-01 2.936161746400000119e-02 5.886777724289999902e-01 -9.956129243360000158e-01 5.800199790269999767e-01 -1.068721031901999963e+00 1.004294897437000067e+00 1.355592319070000051e-01 -2.450861406869999926e-01 -4.788947506760000139e-01 -5.810431922490000289e-01 8.013895804439999937e-01 -9.434331979550000247e-01 2.293384164820000126e-01 7.149722007900000120e-01 -9.759648987400000586e-02 -8.194273900580000269e-01 -6.099996004919999715e-01 4.228182885669999891e-01 1.838161345890000076e-01 1.012591766634999946e+00 -1.022006667770000016e-01 -1.023994750553999911e+00 -1.290625376968000060e+00 -3.003731557759999893e-01 -3.476342132320000000e-01 1.358539574851000076e+00 2.151452708409999914e-01 -5.073350274590000542e-01 -3.819151491969999812e-01 9.875720826520000273e-01 -1.925857590420000098e-01 -6.021533808740000548e-01 6.208366201360000503e-01 1.392343241537000065e+00 5.699361602689999584e-01 4.343215690139999863e-01 -2.102299657779999886e-01 5.698885188829999615e-01 6.025444075889999640e-01 -2.087756863019999964e-01 -7.737932977720000105e-01 -2.023743359329999991e-01 -6.373378184569999938e-01 8.286136449500000611e-02 -4.688528844250000049e-01 -8.776224682100000618e-02 -6.083726431220000119e-01 -7.620106894310000323e-01 4.544843970670000011e-01 7.080795081180000228e-01 3.186323736050000188e-01 -2.692029175659000018e+00 9.270189871520000402e-01 -8.079023423999999454e-02 7.213663865999999647e-01 -7.456403644850000401e-01 -1.521950447303999976e+00 4.252456820230000045e-01 -1.356462415311000091e+00 -3.846760809999999757e-04 4.023849945349999846e-01 -4.701820314149999791e-01 5.089093726279999563e-01 -6.633750831850000473e-01 -1.052756711859999944e-01 2.388578033959999902e-01 1.254451707170000097e-01 3.353570871559999889e-01 4.334183627420000184e-01 1.136608249053000064e+00 4.015926121060000020e-01 1.803284325320000103e-01 2.693286295210000070e-01 -9.122723734399999784e-02 -5.773217639559999892e-01 -1.291567337990000008e-01 8.535207627390000162e-01 2.413411935180000134e-01 -5.673405601690000299e-01 -8.640435169569999907e-01 4.017183197829999886e-01 1.668165491090000119e-01 -1.526556763192999933e+00 -5.661079707320000320e-01 -3.625412686589999933e-01 1.586550354039999999e-01 9.281127639849999778e-01 -1.593307552241999936e+00 1.334553554273000042e+00 -6.355612923869999875e-01 -1.384530201290999907e+00 9.257275303559999724e-01 6.108217595930000021e-01 2.998026828009999756e-01 -6.885048002299999637e-02 -1.390180242509999886e-01 2.515211349609999814e-01 -4.329987448000000363e-03 -8.051869641799999644e-02 1.251975094000999933e+00 7.280057112159999955e-01 -5.680499254330000358e-01 1.358564564716000067e+00 5.555010838789999905e-01 -3.785821570180000206e-01 1.021740415171999983e+00 -1.243729558699999960e-01