-1.224855746063552431e+01 -2.318366031968412955e+00 -2.557007546218529326e-01 -2.318366031968412955e+00 -1.441885724228129284e+01 -1.263111149375055087e+00 -2.557007546218529326e-01 -1.263111149375055087e+00 -1.211934105502992054e+01
-9.563167963319006759e+00 -2.263159579983022862e+00 -2.902232252002014401e-01 -2.263159579983022862e+00 -8.994230956876872796e+00 -1.033811581928610668e+00 -2.902232252002014401e-01 -1.033811581928610668e+00 -8.814842579551756430e+00
-9.115339899842133775e+00 -2.498605785884248309e+00 -1.931047939865767893e-01 -2.498605785884248309e+00 -8.009065991861680445e+00 -7.093493086812210358e-01 -1.931047939865767893e-01 -7.093493086812210358e-01 -1.167178295700341728e+01
-9.053212414216986303e+00 -3.191029716180310505e+00 4.391125776498748801e-01 -3.191029716180310505e+00 -6.282117428322624875e+00 -6.957309932742202774e-01 4.391125776498748801e-01 -6.957309932742202774e-01 -1.503544925568651891e+01
-6.018822277272824373e+00 -3.718859098710336486e+00 7.636935774718449643e-01 -3.718859098710336486e+00 -1.573764276077832314e+00 -3.792341529628938113e-01 7.636935774718449643e-01 -3.792341529628938113e-01 -1.004821594517114036e+01
9.329562878783630164e-02 -3.853497865947428380e+00 1.049900797620684223e+00 -3.853497865947428380e+00 5.588434954543870958e+00 4.043148187119751658e-01 1.049900797620684223e+00 4.043148187119751658e-01 1.623990331656613106e+00
7.889530511543247915e-01 -3.627151718820493809e+00 1.552544349363882858e+00 -3.627151718820493809e+00 5.743399015478120262e+00 7.579686901166872159e-01 1.552544349363882858e+00 7.579686901166872159e-01 5.363630111967426117e+00
-1.238541971634420813e+00 -2.340418438965860215e+00 2.395899177040327288e+00 -2.340418438965860215e+00 2.527309845805379762e+00 -3.197932662294404316e-01 2.395899177040327288e+00 -3.197932662294404316e-01 5.695773759825424332e-01
1.154702971053056304e+00 -1.482888678033795760e+00 3.508202222995238095e+00 -1.482888678033795760e+00 2.535172446793783507e+00 -1.314922445511323090e+00 3.508202222995238095e+00 -1.314922445511323090e+00 -8.986072374600848622e-01
4.290357946184649940e+00 -1.665908920630649215e+00 3.506171697336844861e+00 -1.665908920630649215e+00 4.427045278179084775e+00 -1.909626004399398447e+00 3.506171697336844861e+00 -1.909626004399398447e+00 6.270229748420721450e-01
8.574049179185504244e+00 -2.536195774732827868e+00 1.466991456782019920e+00 -2.536195774732827868e+00 1.359255991323122181e+01 -2.739611509110885024e+00 1.466991456782019920e+00 -2.739611509110885024e+00 4.256680653423503990e+00
1.312843214609972087e+01 -3.272324077192183545e+00 -1.054618417919845008e+00 -3.272324077192183545e+00 2.016376871550467342e+01 -4.264034709857509320e+00 -1.054618417919845008e+00 -4.264034709857509320e+00 8.032684988558026262e+00
1.292560268851103089e+01 -3.753836374845679558e+00 -2.243556357038634985e+00 -3.753836374845679558e+00 2.066325445138663142e+01 -4.964736329905700352e+00 -2.243556357038634985e+00 -4.964736329905700352e+00 9.512435610403507269e+00
1.062837424291495303e+01 -4.572048525214069237e+00 -2.594625226958012121e+00 -4.572048525214069237e+00 1.279466636037798111e+01 -4.571209332107608603e+00 -2.594625226958012121e+00 -4.571209332107608603e+00 6.796681401820614532e+00
8.421426129258177795e+00 -4.730570331978827703e+00 -3.163214243421519356e+00 -4.730570331978827703e+00 7.447071107345980323e+00 -4.204567613547369298e+00 -3.163214243421519356e+00 -4.204567613547369298e+00 7.240349322649634267e+00
6.015588574269407296e+00 -4.531323549449271404e+00 -3.898465367392936365e+00 -4.531323549449271404e+00 7.469084977710839901e+00 -3.286761814580572594e+00 -3.898465367392936365e+00 -3.286761814580572594e+00 5.636880893928974956e+00
1.234770905200653024e+00 -4.178033372643195520e+00 -4.519408636645880328e+00 -4.178033372643195520e+00 2.730612453370674153e+00 -1.863192699039491362e+00 -4.519408636645880328e+00 -1.863192699039491362e+00 2.511771582643150147e+00
-1.037157842074180003e+01 -4.339156099698825209e+00 -4.592354266177808064e+00 -4.339156099698825209e+00 -7.179202991908373299e+00 -1.040468563742406038e+00 -4.592354266177808064e+00 -1.040468563742406038e+00 -1.565592939893334590e+00
-1.799861645695325763e+01 -3.564122773325784532e+00 -3.264416140081459083e+00 -3.564122773325784532e+00 -1.104552433267346245e+01 -2.488932439866202440e-01 -3.264416140081459083e+00 -2.488932439866202440e-01 -4.030858022815207775e+00
-2.079674551775983815e+01 -2.418045095442285408e+00 -2.365330227219538894e+00 -2.418045095442285408e+00 -1.159118150893267973e+01 -1.779440981735948835e-01 -2.365330227219538894e+00 -1.779440981735948835e-01 -9.858922219389841146e+00
-2.033969622153210821e+01 -2.087761304543596541e+00 -3.680175552716387077e+00 -2.087761304543596541e+00 -1.183796611470567406e+01 6.597752808059109686e-02 -3.680175552716387077e+00 6.597752808059109686e-02 -1.557830996530200451e+01
-1.691201230779125453e+01 -1.655141049414168064e+00 -4.320245816510765557e+00 -1.655141049414168064e+00 -1.231676687221776412e+01 5.134709550613537621e-01 -4.320245816510765557e+00 5.134709550613537621e-01 -1.505449851271384354e+01
-1.833724136858969800e+01 -1.856623910680845757e+00 -4.070380271670242855e+00 -1.856623910680845757e+00 -1.734512824809620923e+01 4.191815409431935424e-01 -4.070380271670242855e+00 4.191815409431935424e-01 -2.038534286389185013e+01
-2.419462222005845931e+01 -1.988117241081819753e+00 -3.316717911502809368e+00 -1.988117241081819753e+00 -2.298071449209042427e+01 -7.158683058803554378e-01 -3.316717911502809368e+00 -7.158683058803554378e-01 -2.923332939934713792e+01
-2.842975813369045568e+01 -2.081250726369283655e+00 -3.182190604657292088e+00 -2.081250726369283655e+00 -2.515386968633753995e+01 -2.032322303291745236e+00 -3.182190604657292088e+00 -2.032322303291745236e+00 -3.360780942941553917e+01
-2.437529760004706247e+01 -2.419473120890982099e+00 -3.467040089189531216e+00 -2.419473120890982099e+00 -1.997743348475205849e+01 -2.185796587756948739e+00 -3.467040089189531216e+00 -2.185796587756948739e+00 -2.967859450256223042e+01
-1.789484638717364362e+01 -3.757581691424001669e+00 -3.599407497168710002e+00 -3.757581691424001669e+00 -1.658956058908437470e+01 -9.545172274421654945e-01 -3.599407497168710002e+00 -9.545172274421654945e-01 -2.201770764629521437e+01
-7.814022172654690124e+00 -3.867480233560853797e+00 -2.781311790800310213e+00 -3.867480233560853797e+00 -8.021353584528993608e+00 5.463197667920816070e-01 -2.781311790800310213e+00 5.463197667920816070e-01 -1.290573203930594559e+01
-2.659346825964883365e+00 -1.543102210055186330e+00 -6.693390483797708734e-01 -1.543102210055186330e+00 -3.222709985147299339e+00 1.241137645363067366e+00 -6.693390483797708734e-01 1.241137645363067366e+00 -6.726901558563736394e+00
-4.059518081335955486e+00 3.228100544411058870e-01 8.322823943958819193e-01 3.228100544411058870e-01 2.666120782569712411e+00 1.445794624088626135e+00 8.322823943958819193e-01 1.445794624088626135e+00 -4.380841071977286560e+00
-2.706771906073706102e+00 -5.457796810057348180e-01 1.933260851665763003e+00 -5.457796810057348180e-01 4.870478168809347252e+00 4.663295257215387957e-01 1.933260851665763003e+00 4.663295257215387957e-01 -1.304208780754434249e+00
1.868613649823434919e+00 -2.100361749098418329e+00 9.886769748406735170e-01 -2.100361749098418329e+00 4.206810032549154199e-01 -5.370074734073396749e-01 9.886769748406735170e-01 -5.370074734073396749e-01 9.515700896830447952e-01
9.411899422187254061e+00 -1.906496645213903163e+00 -1.201388291021613153e+00 -1.906496645213903163e+00 1.678093213193875943e+00 -4.702005429657470370e-01 -1.201388291021613153e+00 -4.702005429657470370e-01 8.291526888567421594e+00
1.706544046230136047e+01 -4.278972422672668724e-02 -2.590833412023616944e+00 -4.278972422672668724e-02 9.459736022622859508e+00 -6.824176559513942530e-01 -2.590833412023616944e+00 -6.824176559513942530e-01 1.538801982408600999e+01
1.943168859334977583e+01 1.298807338624391683e+00 -1.162647298937276474e+00 1.298807338624391683e+00 1.696172169111045136e+01 -2.188378014873400890e+00 -1.162647298937276474e+00 -2.188378014873400890e+00 1.950665625388210600e+01
1.741182615048209215e+01 3.128320581633335928e-01 6.204477354901699604e-01 3.128320581633335928e-01 1.765358056084053473e+01 -1.420955832855493650e+00 6.204477354901699604e-01 -1.420955832855493650e+00 1.864030548518700670e+01
8.769696532835540737e+00 -3.843030491144608263e+00 8.583525632622700519e-01 -3.843030491144608263e+00 1.804230863537776131e+01 -1.250753304293013811e-02 8.583525632622700519e-01 -1.250753304293013811e-02 1.349415912879567259e+01
5.336932839723028899e+00 -6.001479564208994866e+00 1.340526192446568343e+00 -6.001479564208994866e+00 1.521815535960005583e+01 2.569569822597110864e-01 1.340526192446568343e+00 2.569569822597110864e-01 8.649146229016244192e+00
8.272754704528601621e+00 -6.142514023493729880e+00 8.731352927865727587e-01 -6.142514023493729880e+00 1.209299567736770875e+01 -1.025242319347364317e+00 8.731352927865727587e-01 -1.025242319347364317e+00 4.947408461984243999e+00
3.112180032753044667e+00 -4.499516267493488542e+00 -8.286217459821105802e-01 -4.499516267493488542e+00 6.740723911251179423e+00 -1.846207673311548003e+00 -8.286217459821105802e-01 -1.846207673311548003e+00 3.587763624367892312e+00
-6.825921934936729052e+00 -3.927294501644833957e+00 -2.765730480173984152e+00 -3.927294501644833957e+00 -1.128595252950438610e+00 -1.079582519544060037e+00 -2.765730480173984152e+00 -1.079582519544060037e+00 -4.232643971181039966e+00
-1.583024403988272510e+01 -3.949133494007857514e+00 -2.278884696885174144e+00 -3.949133494007857514e+00 -1.158029004423417696e+01 -1.065418405101569155e+00 -2.278884696885174144e+00 -1.065418405101569155e+00 -1.167926776137816169e+01
-2.164893777499073479e+01 -3.761805194131179420e+00 -1.044522171440933844e+00 -3.761805194131179420e+00 -1.609582518758560354e+01 -1.177258602413715272e+00 -1.044522171440933844e+00 -1.177258602413715272e+00 -1.318584254692226132e+01
-2.368259256292195047e+01 -3.228170580388606936e+00 -1.305560543369840731e+00 -3.228170580388606936e+00 -1.834062605215263630e+01 -1.064422824043528504e+00 -1.305560543369840731e+00 -1.064422824043528504e+00 -1.586150475058841280e+01
-2.328045824563094612e+01 -3.121349238902425771e+00 -2.314161247865697213e+00 -3.121349238902425771e+00 -1.520905730377446652e+01 -1.416642633018371678e+00 -2.314161247865697213e+00 -1.416642633018371678e+00 -1.551297591935651532e+01
-1.765618305805382349e+01 -3.510195164336940898e+00 -2.598853941034656501e+00 -3.510195164336940898e+00 -1.243732650296509590e+01 -2.120553138605556942e+00 -2.598853941034656501e+00 -2.120553138605556942e+00 -1.038549271432632892e+01
-8.426251409179588592e+00 -2.962233921596610031e+00 -2.395286888641710910e+00 -2.962233921596610031e+00 -1.371530256432676076e+01 -2.688942528095443762e+00 -2.395286888641710910e+00 -2.688942528095443762e+00 -4.763683622995699807e+00
-2.759507237975985738e+00 -1.597865406915037756e+00 -1.725125218604773192e+00 -1.597865406915037756e+00 -1.461250749782989011e+01 -3.394587325157970348e+00 -1.725125218604773192e+00 -3.394587325157970348e+00 -6.734483085800406776e+00
-6.909493575142668043e+00 -1.017593051353847367e+00 -1.617688385864035627e+00 -1.017593051353847367e+00 -1.638914391166323270e+01 -4.140142943515940033e+00 -1.617688385864035627e+00 -4.140142943515940033e+00 -1.203752041891065083e+01
-1.092371545914107678e+01 -1.232138675664582239e+00 -1.611557467141752298e+00 -1.232138675664582239e+00 -1.566529489556114996e+01 -4.113301743678841049e+00 -1.611557467141752298e+00 -4.113301743678841049e+00 -1.427004679537072462e+01
-1.021550206064165955e+01 -1.654107007428959886e+00 -1.367036724600620090e+00 -1.654107007428959886e+00 -1.038543560940277821e+01 -3.745467430793988584e+00 -1.367036724600620090e+00 -3.745467430793988584e+00 -1.377980388161402203e+01
-5.953457871316437888e+00 -2.252916733145320816e+00 -1.436273164663274704e+00 -2.252916733145320816e+00 -2.774370833400120251e+00 -2.824894105218702656e+00 -1.436273164663274704e+00 -2.824894105218702656e+00 -8.923677097645041911e+00
-2.158326659160806571e+00 -2.833001695347135307e+00 -9.886765866046126616e-01 -2.833001695347135307e+00 1.648932327742843817e+00 -1.415575836231274920e+00 -9.886765866046126616e-01 -1.415575836231274920e+00 -4.092594008283922946e+00
1.819062352432678775e+00 -2.610168897355763740e+00 5.988674955100449226e-01 -2.610168897355763740e+00 7.406496426102150421e-01 -8.535263154498570204e-01 5.988674955100449226e-01 -8.535263154498570204e-01 -1.093276491219897562e+00
4.125925532034097287e+00 -2.412729059043157598e+00 2.657353718506758167e+00 -2.412729059043157598e+00 1.529885128960706275e+00 -8.004715672818895067e-01 2.657353718506758167e+00 -8.004715672818895067e-01 3.308333328045474531e+00
6.447187403465048483e+00 -3.012443452627799445e+00 4.139551443276816123e+00 -3.012443452627799445e+00 6.678776610432967331e+00 -8.490170674615867830e-01 4.139551443276816123e+00 -8.490170674615867830e-01 6.293476094666617726e+00
1.034634957744680328e+01 -3.740162983046381395e+00 3.507012286479282981e+00 -3.740162983046381395e+00 1.318673852244284639e+01 -8.303155512858059195e-01 3.507012286479282981e+00 -8.303155512858059195e-01 9.278578724222947827e+00
1.128425448322662916e+01 -3.541557230355410368e+00 1.136390206489773291e+00 -3.541557230355410368e+00 1.340446564701839272e+01 3.221380803856490477e-02 1.136390206489773291e+00 3.221380803856490477e-02 9.800458566873322397e+00
1.124273800751990926e+01 -4.482821317367966074e+00 6.724245572530693771e-01 -4.482821317367966074e+00 1.447073012326147889e+01 4.736209004642246700e-01 6.724245572530693771e-01 4.736209004642246700e-01 8.998026859755688278e+00
1.061011354099892579e+01 -5.185284730539984288e+00 2.362798179634342688e+00 -5.185284730539984288e+00 9.726513202706062344e+00 -7.558462184247264348e-01 2.362798179634342688e+00 -7.558462184247264348e-01 6.631402042063740510e+00
1.116975708655717270e+01 -4.827102600689321399e+00 3.299131281297205565e+00 -4.827102600689321399e+00 7.033412327162279709e+00 -2.108957274493457934e+00 3.299131281297205565e+00 -2.108957274493457934e+00 5.903945435641766437e+00
1.389339525053713054e+01 -4.660999508677304171e+00 2.274292796631417257e+00 -4.660999508677304171e+00 9.302013772455167029e+00 -2.542673743244137086e+00 2.274292796631417257e+00 -2.542673743244137086e+00 4.880016909327441255e+00
8.920118976728119264e+00 -4.029591168319553773e+00 7.547999197319914533e-01 -4.029591168319553773e+00 7.137793317261699855e+00 -2.656220356829309903e+00 7.547999197319914533e-01 -2.656220356829309903e+00 6.567062886141333600e+00
-1.707616322931957642e+00 -2.942727240781136011e+00 -3.291394079681289608e-01 -2.942727240781136011e+00 -6.349404619732988975e-01 -4.047137697473747409e+00 -3.291394079681289608e-01 -4.047137697473747409e+00 -1.953576219055102481e+00
-9.986937125062492981e+00 -2.092899888119176044e+00 -2.406797882963975344e+00 -2.092899888119176044e+00 -7.759724489639790335e+00 -4.166415327993965967e+00 -2.406797882963975344e+00 -4.166415327993965967e+00 -7.012189762768865187e+00
-1.114076362066038861e+01 -1.778228321500822107e+00 -3.178057041951368511e+00 -1.778228321500822107e+00 -9.661243176805283994e+00 -1.907203019859953663e+00 -3.178057041951368511e+00 -1.907203019859953663e+00 -7.449310533941661205e+00
-5.393483749365616475e+00 -2.729406779445815445e+00 -1.986256862668800638e+00 -2.729406779445815445e+00 -1.003436919692519425e+01 -8.482595721753577456e-01 -1.986256862668800638e+00 -8.482595721753577456e-01 -7.802535602299775164e+00
1.767905986158623710e+00 -3.203817249409981471e+00 -5.941922206587747501e-01 -3.203817249409981471e+00 -9.345514092240117421e+00 -2.030230599737052610e-01 -5.941922206587747501e-01 -2.030230599737052610e-01 -8.477378905579186608e+00
-2.461878670611200359e+00 -2.645003501070492646e+00 -6.727592567455551453e-01 -2.645003501070492646e+00 -1.321171204652764963e+01 6.556329844654563699e-01 -6.727592567455551453e-01 6.556329844654563699e-01 -1.879416220151068728e+01
-1.449469710433291958e+01 -2.873292620784428042e+00 -1.491281042626869446e+00 -2.873292620784428042e+00 -1.666662516991774368e+01 1.512031914293244239e-01 -1.491281042626869446e+00 1.512031914293244239e-01 -2.620177512337271608e+01
-1.694569336686279826e+01 -3.554809061528372283e+00 -2.259591395420070370e+00 -3.554809061528372283e+00 -1.781171888857439001e+01 -1.070837006505592326e+00 -2.259591395420070370e+00 -1.070837006505592326e+00 -2.426039138611245605e+01
-9.291562168381732434e+00 -4.115088008983923906e+00 -2.205507149159250613e+00 -4.115088008983923906e+00 -1.331508031513216928e+01 -1.531161201914310155e+00 -2.205507149159250613e+00 -1.531161201914310155e+00 -1.447691992094953228e+01
-5.870044739270674938e+00 -4.623561466586552093e+00 -1.209596874301711367e+00 -4.623561466586552093e+00 -7.364765497062897737e+00 -2.824250486037929608e+00 -1.209596874301711367e+00 -2.824250486037929608e+00 -1.270323237630918367e+00
-7.721146080501125830e+00 -4.727943768140644210e+00 -1.198303794422402202e+00 -4.727943768140644210e+00 -7.781483190477515244e+00 -5.280069289274209154e+00 -1.198303794422402202e+00 -5.280069289274209154e+00 1.015990101029283643e+01
-9.684686649619813181e+00 -4.636657188316024580e+00 -2.084824354152861936e+00 -4.636657188316024580e+00 -1.243083562981060020e+01 -4.602069156879779577e+00 -2.084824354152861936e+00 -4.602069156879779577e+00 7.708523404627530162e+00
-1.166755418524956589e+01 -4.342869532705624813e+00 -2.123666214834996513e+00 -4.342869532705624813e+00 -1.445309417961893672e+01 -3.082969154278568436e+00 -2.123666214834996513e+00 -3.082969154278568436e+00 6.184512064963981759e-01
-6.815059835656555265e+00 -4.484649285190129397e+00 -1.647975727467247520e+00 -4.484649285190129397e+00 -8.450160247125108270e+00 -2.037550173196698289e+00 -1.647975727467247520e+00 -2.037550173196698289e+00 -3.877529553337310197e+00
-6.896762423821253818e-02 -3.125155770651809384e+00 -1.349487105295942291e+00 -3.125155770651809384e+00 -2.569962470380982911e+00 -2.540593284849468780e+00 -1.349487105295942291e+00 -2.540593284849468780e+00 -3.330679799537830554e+00
1.000046560936623941e+01 -2.561943617684127705e+00 -1.038490462276330684e+00 -2.561943617684127705e+00 2.153082435465264233e+00 -3.277218879804392415e+00 -1.038490462276330684e+00 -3.277218879804392415e+00 1.426029516835970901e+00
1.352000713511848495e+01 -4.634613564484598491e+00 -1.446332664641920118e+00 -4.634613564484598491e+00 1.649584249359937083e+00 -3.029881332501801250e+00 -1.446332664641920118e+00 -3.029881332501801250e+00 6.079149567094288109e+00
1.298904329802982360e+01 -4.499650005108936313e+00 -2.651640624854759487e+00 -4.499650005108936313e+00 -1.437702786004583233e+00 -3.468193290127946860e+00 -2.651640624854759487e+00 -3.468193290127946860e+00 9.110887566456112197e+00
1.074297080489303546e+01 -1.597922973917067280e+00 -2.458481415120391755e+00 -1.597922973917067280e+00 -3.760177862877259969e+00 -4.287971845917301295e+00 -2.458481415120391755e+00 -4.287971845917301295e+00 6.332063489973028148e+00
-1.541432882673364202e-01 -9.328274642740326250e-01 6.476869069980180083e-01 -9.328274642740326250e-01 -7.262350769003407258e+00 -3.251754327904654129e+00 6.476869069980180083e-01 -3.251754327904654129e+00 -1.132857694089303591e+00
1.222778611555073836e+00 -5.569392159328947489e-01 2.135487659300642882e+00 -5.569392159328947489e-01 -6.067538743974018267e+00 -2.653834670617575053e+00 2.135487659300642882e+00 -2.653834670617575053e+00 -4.960109561319354654e+00
-3.796629269820460673e-01 -1.393463354294509848e+00 1.482463398927963416e+00 -1.393463354294509848e+00 -4.348571463700314332e+00 -2.972098434489296448e+00 1.482463398927963416e+00 -2.972098434489296448e+00 -5.090689456672902402e+00
-7.991890974618409693e+00 -1.709618230301484854e+00 9.354900062953549478e-01 -1.709618230301484854e+00 -6.426363132467768580e+00 -2.134955457310635296e+00 9.354900062953549478e-01 -2.134955457310635296e+00 -4.821840601627917167e+00
-1.000672755079516207e+01 -1.340947366787443640e+00 8.356191782260515843e-01 -1.340947366787443640e+00 -1.016835417741779857e+01 -1.494910495551676544e+00 8.356191782260515843e-01 -1.494910495551676544e+00 -4.301351476104326110e+00
-9.674813180890339481e+00 -1.287304904513683290e+00 -4.118619266615305974e-01 -1.287304904513683290e+00 -8.725752625627611891e+00 -2.435171222371973254e+00 -4.118619266615305974e-01 -2.435171222371973254e+00 -3.957357448823470403e+00
-9.724993172987490553e+00 -1.486884895623853620e+00 -1.645617828410665728e+00 -1.486884895623853620e+00 -7.146981284757711883e+00 -3.554302806870678566e+00 -1.645617828410665728e+00 -3.554302806870678566e+00 -8.820718141659684264e+00
-6.196058460322301009e+00 -1.789276704245256644e+00 -1.715090490687453395e-01 -1.789276704245256644e+00 -8.512959112259233407e+00 -3.708275665687574385e+00 -1.715090490687453395e-01 -3.708275665687574385e+00 -9.964043787664287777e+00
-3.349834868411742050e+00 -2.050455327677560113e+00 1.469411532247012042e+00 -2.050455327677560113e+00 -4.667703719472832802e+00 -3.868188710750392278e+00 1.469411532247012042e+00 -3.868188710750392278e+00 -1.019315483885414331e+01
2.606667268671156723e+00 -2.838061088488677441e+00 7.057748554782711237e-01 -2.838061088488677441e+00 -7.690494337448915196e+00 -4.036833869860795510e+00 7.057748554782711237e-01 -4.036833869860795510e+00 -7.641293322187607373e+00
1.053671590794211799e+00 -2.691812048042018457e+00 4.905478081232302057e-02 -2.691812048042018457e+00 -1.026171692350165365e+01 -2.842823839140995013e+00 4.905478081232302057e-02 -2.842823839140995013e+00 -9.062893385468477447e+00
-8.200157860549573741e+00 -2.707012036360410434e+00 -4.021152387178189569e-01 -2.707012036360410434e+00 -1.309093804385305759e+01 -1.140533524712206814e+00 -4.021152387178189569e-01 -1.140533524712206814e+00 -9.637319491242521963e+00
-1.068431503388376669e+01 -2.622781540724067106e+00 -1.111165339185296697e+00 -2.622781540724067106e+00 -1.105253806958207363e+01 -1.348807307139316070e+00 -1.111165339185296697e+00 -1.348807307139316070e+00 -8.073648676538574875e+00
-1.113766310728052567e+01 -1.044831453464915683e+00 -1.415593218638548034e+00 -1.044831453464915683e+00 -6.420017735096522848e+00 -2.487507845928071060e+00 -1.415593218638548034e+00 -2.487507845928071060e+00 -5.383033475098199183e+00
-8.074565950518593382e+00 -1.351217449953892313e-01 -1.127448057957703087e+00 -1.351217449953892313e-01 -4.438627685331180572e+00 -2.407192227620049252e+00 -1.127448057957703087e+00 -2.407192227620049252e+00 -2.515085120958458376e+00
-5.661213777759562582e+00 -7.073024742113422914e-01 -2.024258713703228185e+00 -7.073024742113422914e-01 -4.121244942395070332e+00 -1.539371724918677131e+00 -2.024258713703228185e+00 -1.539371724918677131e+00 -4.580506662491211856e+00
1.261661281192520523e+00 -1.470456915597900593e+00 -1.354132367937262993e+00 -1.470456915597900593e+00 -8.189454176094230764e-01 -5.623543431646594870e-01 -1.354132367937262993e+00 -5.623543431646594870e-01 -1.155992274102943362e+00
2.347969337520519950e+00 -1.853768853258858984e+00 8.985883880313032535e-01 -1.853768853258858984e+00 4.304218482456928285e+00 -7.219011391455566473e-01 8.985883880313032535e-01 -7.219011391455566473e-01 -1.576175426588407147e+00
7.761261122312107519e-01 -2.271717304542436811e+00 2.147686262152684655e+00 -2.271717304542436811e+00 7.450242969179917907e+00 -1.347551390051560327e+00 2.147686262152684655e+00 -1.347551390051560327e+00 -1.619717372794977184e+00
2.206150655831673468e+00 -2.308042259484126557e+00 1.358716341004617689e+00 -2.308042259484126557e+00 2.011269971924292133e+00 -1.186942174051818455e+00 1.358716341004617689e+00 -1.186942174051818455e+00 -2.123443470881118955e+00
4.955763370383922783e+00 -2.303862300058534984e+00 -2.065580518052272663e-01 -2.303862300058534984e+00 2.574242264679453385e+00 -9.545399571231956148e-01 -2.065580518052272663e-01 -9.545399571231956148e-01 -8.140479535637765718e-01
7.281177463111760062e+00 -1.655457641190236862e+00 -1.346715514187008855e+00 -1.655457641190236862e+00 2.841253326579173510e+00 -5.673252885044223204e-01 -1.346715514187008855e+00 -5.673252885044223204e-01 2.730160944551719204e+00
8.828678563714879246e+00 -2.559450815235825034e-03 -2.023523683723248645e+00 -2.559450815235825034e-03 2.438695278552046819e+00 4.545780696603777260e-01 -2.023523683723248645e+00 4.545780696603777260e-01 5.130745891293717165e+00
9.745690571590550633e+00 3.559343819411910914e-01 -8.887461425517375613e-01 3.559343819411910914e-01 6.562989390595582506e+00 7.553402806820020965e-01 -8.887461425517375613e-01 7.553402806820020965e-01 6.829583071549997442e+00
1.008924779233317892e+01 -1.077537237938984926e+00 7.286577731140522207e-01 -1.077537237938984926e+00 7.949543463909183316e+00 -4.021456732940418832e-01 7.286577731140522207e-01 -4.021456732940418832e-01 6.028658569449682147e+00
9.145296550285568316e+00 -2.542796443665642503e+00 1.201636777438673587e+00 -2.542796443665642503e+00 4.620519341707765015e+00 -1.475500862373430255e+00 1.201636777438673587e+00 -1.475500862373430255e+00 2.972691423816597123e+00
2.507134945130845338e+00 -3.372215665620815539e+00 2.338971065382301484e-01 -3.372215665620815539e+00 4.293893266876766646e+00 -1.897518627108431222e+00 2.338971065382301484e-01 -1.897518627108431222e+00 4.918934311584463037e-01
-3.868613006289069123e+00 -3.899075635295913056e+00 -4.385346991305972830e-01 -3.899075635295913056e+00 6.388455968440164945e+00 -1.302977631718352791e+00 -4.385346991305972830e-01 -1.302977631718352791e+00 1.204059301718389957e-01
-6.883423713586567239e+00 -4.154562153934350022e+00 9.628601283410562761e-01 -4.154562153934350022e+00 2.445013532274032730e+00 -1.443958284138656234e+00 9.628601283410562761e-01 -1.443958284138656234e+00 -2.692084268716633311e+00
-1.008117388949028737e+01 -3.975602618568798707e+00 2.590419739423356571e+00 -3.975602618568798707e+00 -6.506065640225782154e+00 -2.023959716047018631e+00 2.590419739423356571e+00 -2.023959716047018631e+00 -9.068732984164050492e+00
-2.097384783654630436e+00 -2.445948542366460199e+00 2.780826991486208044e+00 -2.445948542366460199e+00 -1.050593735315120725e+01 -7.658732873381705053e-01 2.780826991486208044e+00 -7.658732873381705053e-01 -1.179777762254025042e+01
-4.368672685145920109e-01 -3.186944596576979816e+00 2.474615722539053930e+00 -3.186944596576979816e+00 -1.431931287630762561e+01 6.796332951733042860e-01 2.474615722539053930e+00 6.796332951733042860e-01 -1.231630032349466575e+01
-8.856802675834529737e+00 -3.981114728116693424e+00 2.516063575534710051e+00 -3.981114728116693424e+00 -1.857541213406927483e+01 1.821230312761306647e-01 2.516063575534710051e+00 1.821230312761306647e-01 -1.485546718884846129e+01
-1.454291185829107569e+01 -2.730075190100940130e+00 2.627076589968005305e+00 -2.730075190100940130e+00 -1.944819775681398966e+01 -7.637729361210617851e-01 2.627076589968005305e+00 -7.637729361210617851e-01 -1.449938495962722662e+01
-1.291237814984032894e+01 -5.927378463561708832e-01 1.473667184446896483e+00 -5.927378463561708832e-01 -1.588246727505568856e+01 -8.107139805431882174e-01 1.473667184446896483e+00 -8.107139805431882174e-01 -1.167193705312763186e+01
-6.950275668050079680e+00 5.900078937090436071e-01 7.490715911685678075e-01 5.900078937090436071e-01 -1.112471424621301530e+01 -1.366668540402189214e+00 7.490715911685678075e-01 -1.366668540402189214e+00 -8.112879212418926400e+00
-2.215939600872502968e+00 -2.327471203955467846e-02 5.154457537847567661e-01 -2.327471203955467846e-02 -4.700601799920279156e+00 -3.618789764972474732e+00 5.154457537847567661e-01 -3.618789764972474732e+00 -3.377633416686307122e+00
9.944643117802041132e-01 -1.582558654780350293e+00 -1.353817462602781685e+00 -1.582558654780350293e+00 5.722931912520174969e+00 -5.912709967162784075e+00 -1.353817462602781685e+00 -5.912709967162784075e+00 4.564397499412055303e+00
-3.042357449547893555e+00 -1.421185609219419499e+00 -3.009131527197527411e+00 -1.421185609219419499e+00 8.992947995259040539e+00 -5.365571169490430670e+00 -3.009131527197527411e+00 -5.365571169490430670e+00 6.063844183037402580e+00
-1.154224779332985396e+00 -1.429100347374587354e+00 -3.192674721284681105e+00 -1.429100347374587354e+00 4.348124178819719354e+00 -4.720126317611724964e+00 -3.192674721284681105e+00 -4.720126317611724964e+00 6.693418946176253881e-01
3.336491952122461857e+00 -8.586412565834225519e-02 -2.201321761071734606e+00 -8.586412565834225519e-02 3.206085821765476851e+00 -4.515492053803407124e+00 -2.201321761071734606e+00 -4.515492053803407124e+00 4.882635958874546878e-02
3.583237224807807042e+00 1.570763770820223559e+00 -1.646888497061599566e+00 1.570763770820223559e+00 -1.286144642728379139e+00 -3.560204912380613429e+00 -1.646888497061599566e+00 -3.560204912380613429e+00 -2.776039499576552494e-01
-7.690480485180957615e+00 8.992065331526909455e-01 -2.532636029023457525e+00 8.992065331526909455e-01 -5.737225054154426296e+00 -2.374188886188917547e+00 -2.532636029023457525e+00 -2.374188886188917547e+00 7.554585786303730233e-01
-6.211120210511513307e+00 1.129048840497411943e+00 -2.378114616333268483e+00 1.129048840497411943e+00 -8.633223200598925118e+00 -2.058224768288982709e+00 -2.378114616333268483e+00 -2.058224768288982709e+00 2.795154660347332065e+00
-4.321943540754467905e-02 1.868443293807834804e+00 -2.024158938912159478e+00 1.868443293807834804e+00 -9.230818508021023661e+00 -1.772109680946900800e+00 -2.024158938912159478e+00 -1.772109680946900800e+00 1.948422175457431793e+00
-3.992385146042326305e+00 1.634418115931483673e+00 -7.543532230752394430e-01 1.634418115931483673e+00 -8.901447218309630927e+00 -1.749743855344211063e+00 -7.543532230752394430e-01 -1.749743855344211063e+00 -3.337074451367439742e+00
-1.500271457822960341e+00 4.536267570336495747e-01 -1.104476321784973791e+00 4.536267570336495747e-01 -9.106293187747512619e+00 -2.655743778758664408e+00 -1.104476321784973791e+00 -2.655743778758664408e+00 -1.030968687166376263e+01