7.934654700360144197e+00 0.000000000000000000e+00 0.000000000000000000e+00 0.000000000000000000e+00 7.934654700360144197e+00 0.000000000000000000e+00 0.000000000000000000e+00 0.000000000000000000e+00 8.144682971895166546e+00
7.934005731410804785e+00 0.000000000000000000e+00 0.000000000000000000e+00 0.000000000000000000e+00 7.934005731410804785e+00 0.000000000000000000e+00 0.000000000000000000e+00 0.000000000000000000e+00 8.144016824904708685e+00
7.932879915408340921e+00 0.000000000000000000e+00 0.000000000000000000e+00 0.000000000000000000e+00 7.932879915408340921e+00 0.000000000000000000e+00 0.000000000000000000e+00 0.000000000000000000e+00 8.142861208842782972e+00
7.931750143358648586e+00 0.000000000000000000e+00 0.000000000000000000e+00 0.000000000000000000e+00 7.931750143358648586e+00 0.000000000000000000e+00 0.000000000000000000e+00 0.000000000000000000e+00 8.141701532016231369e+00
7.931862084151283021e+00 0.000000000000000000e+00 0.000000000000000000e+00 0.000000000000000000e+00 7.931862084151283021e+00 0.000000000000000000e+00 0.000000000000000000e+00 0.000000000000000000e+00 8.141816435852810230e+00
7.935736737423612297e+00 0.000000000000000000e+00 0.000000000000000000e+00 0.000000000000000000e+00 7.935736737423612297e+00 0.000000000000000000e+00 0.000000000000000000e+00 0.000000000000000000e+00 8.145793650202767466e+00
7.944513709980715710e+00 0.000000000000000000e+00 0.000000000000000000e+00 0.000000000000000000e+00 7.944513709980715710e+00 0.000000000000000000e+00 0.000000000000000000e+00 0.000000000000000000e+00 8.154802946967542709e+00
7.955488982338742687e+00 0.000000000000000000e+00 0.000000000000000000e+00 0.000000000000000000e+00 7.955488982338742687e+00 0.000000000000000000e+00 0.000000000000000000e+00 0.000000000000000000e+00 8.166068731965291150e+00
7.964573088752890939e+00 0.000000000000000000e+00 0.000000000000000000e+00 0.000000000000000000e+00 7.964573088752890939e+00 0.000000000000000000e+00 0.000000000000000000e+00 0.000000000000000000e+00 8.175393292343313689e+00
7.969845995651451354e+00 0.000000000000000000e+00 0.000000000000000000e+00 0.000000000000000000e+00 7.969845995651451354e+00 0.000000000000000000e+00 0.000000000000000000e+00 0.000000000000000000e+00 8.180805771732451603e+00
7.971148351815696920e+00 0.000000000000000000e+00 0.000000000000000000e+00 0.000000000000000000e+00 7.971148351815696920e+00 0.000000000000000000e+00 0.000000000000000000e+00 0.000000000000000000e+00 8.182142600929260823e+00
7.968867304147093655e+00 0.000000000000000000e+00 0.000000000000000000e+00 0.000000000000000000e+00 7.968867304147093655e+00 0.000000000000000000e+00 0.000000000000000000e+00 0.000000000000000000e+00 8.179801174515215934e+00
7.964139815697940605e+00 0.000000000000000000e+00 0.000000000000000000e+00 0.000000000000000000e+00 7.964139815697940605e+00 0.000000000000000000e+00 0.000000000000000000e+00 0.000000000000000000e+00 8.174948550661380153e+00
7.958562470012822132e+00 0.000000000000000000e+00 0.000000000000000000e+00 0.000000000000000000e+00 7.958562470012822132e+00 0.000000000000000000e+00 0.000000000000000000e+00 0.000000000000000000e+00 8.169223574069070182e+00
7.952647002264035869e+00 0.000000000000000000e+00 0.000000000000000000e+00 0.000000000000000000e+00 7.952647002264035869e+00 0.000000000000000000e+00 0.000000000000000000e+00 0.000000000000000000e+00 8.163151525408609999e+00
7.946038916340168790e+00 0.000000000000000000e+00 0.000000000000000000e+00 0.000000000000000000e+00 7.946038916340168790e+00 0.000000000000000000e+00 0.000000000000000000e+00 0.000000000000000000e+00 8.156368525147602355e+00
7.939109097664291959e+00 0.000000000000000000e+00 0.000000000000000000e+00 0.000000000000000000e+00 7.939109097664291959e+00 0.000000000000000000e+00 0.000000000000000000e+00 0.000000000000000000e+00 8.149255275951606592e+00
7.933737613617171114e+00 0.000000000000000000e+00 0.000000000000000000e+00 0.000000000000000000e+00 7.933737613617171114e+00 0.000000000000000000e+00 0.000000000000000000e+00 0.000000000000000000e+00 8.143741610101926653e+00
7.932696803777385952e+00 0.000000000000000000e+00 0.000000000000000000e+00 0.000000000000000000e+00 7.932696803777385952e+00 0.000000000000000000e+00 0.000000000000000000e+00 0.000000000000000000e+00 8.142673250293727349e+00
7.937607409659459989e+00 0.000000000000000000e+00 0.000000000000000000e+00 0.000000000000000000e+00 7.937607409659459989e+00 0.000000000000000000e+00 0.000000000000000000e+00 0.000000000000000000e+00 8.147713838651583274e+00
7.948854528884655046e+00 0.000000000000000000e+00 0.000000000000000000e+00 0.000000000000000000e+00 7.948854528884655046e+00 0.000000000000000000e+00 0.000000000000000000e+00 0.000000000000000000e+00 8.159258666233078827e+00
7.965131623338797873e+00 0.000000000000000000e+00 0.000000000000000000e+00 0.000000000000000000e+00 7.965131623338797873e+00 0.000000000000000000e+00 0.000000000000000000e+00 0.000000000000000000e+00 8.175966611196118450e+00
7.984136465954200013e+00 0.000000000000000000e+00 0.000000000000000000e+00 0.000000000000000000e+00 7.984136465954200013e+00 0.000000000000000000e+00 0.000000000000000000e+00 0.000000000000000000e+00 8.195474507113793550e+00
8.004443802748053116e+00 0.000000000000000000e+00 0.000000000000000000e+00 0.000000000000000000e+00 8.004443802748053116e+00 0.000000000000000000e+00 0.000000000000000000e+00 0.000000000000000000e+00 8.216319373895464295e+00
8.027410254904239650e+00 0.000000000000000000e+00 0.000000000000000000e+00 0.000000000000000000e+00 8.027410254904239650e+00 0.000000000000000000e+00 0.000000000000000000e+00 0.000000000000000000e+00 8.239893742139299704e+00
8.050682087261565201e+00 0.000000000000000000e+00 0.000000000000000000e+00 0.000000000000000000e+00 8.050682087261565201e+00 0.000000000000000000e+00 0.000000000000000000e+00 0.000000000000000000e+00 8.263781573920748968e+00
8.067428601645584507e+00 0.000000000000000000e+00 0.000000000000000000e+00 0.000000000000000000e+00 8.067428601645584507e+00 0.000000000000000000e+00 0.000000000000000000e+00 0.000000000000000000e+00 8.280971364239137600e+00
8.071814691829928279e+00 0.000000000000000000e+00 0.000000000000000000e+00 0.000000000000000000e+00 8.071814691829928279e+00 0.000000000000000000e+00 0.000000000000000000e+00 0.000000000000000000e+00 8.285473553103184230e+00
8.061075849592938880e+00 0.000000000000000000e+00 0.000000000000000000e+00 0.000000000000000000e+00 8.061075849592938880e+00 0.000000000000000000e+00 0.000000000000000000e+00 0.000000000000000000e+00 8.274450456470447079e+00
8.037028396856317869e+00 0.000000000000000000e+00 0.000000000000000000e+00 0.000000000000000000e+00 8.037028396856317869e+00 0.000000000000000000e+00 0.000000000000000000e+00 0.000000000000000000e+00 8.249766473838883840e+00
8.006772295404550377e+00 0.000000000000000000e+00 0.000000000000000000e+00 0.000000000000000000e+00 8.006772295404550377e+00 0.000000000000000000e+00 0.000000000000000000e+00 0.000000000000000000e+00 8.218709501154172870e+00
7.979356356361950731e+00 0.000000000000000000e+00 0.000000000000000000e+00 0.000000000000000000e+00 7.979356356361950731e+00 0.000000000000000000e+00 0.000000000000000000e+00 0.000000000000000000e+00 8.190567869247878718e+00
7.958081983667646853e+00 0.000000000000000000e+00 0.000000000000000000e+00 0.000000000000000000e+00 7.958081983667646853e+00 0.000000000000000000e+00 0.000000000000000000e+00 0.000000000000000000e+00 8.168730369374104683e+00
7.940538146603255854e+00 0.000000000000000000e+00 0.000000000000000000e+00 0.000000000000000000e+00 7.940538146603255854e+00 0.000000000000000000e+00 0.000000000000000000e+00 0.000000000000000000e+00 8.150722151448830388e+00
7.925931785903865823e+00 0.000000000000000000e+00 0.000000000000000000e+00 0.000000000000000000e+00 7.925931785903865823e+00 0.000000000000000000e+00 0.000000000000000000e+00 0.000000000000000000e+00 8.135729164133978841e+00
7.916207568410390749e+00 0.000000000000000000e+00 0.000000000000000000e+00 0.000000000000000000e+00 7.916207568410390749e+00 0.000000000000000000e+00 0.000000000000000000e+00 0.000000000000000000e+00 8.125747549101161482e+00
7.914019139718645235e+00 0.000000000000000000e+00 0.000000000000000000e+00 0.000000000000000000e+00 7.914019139718645235e+00 0.000000000000000000e+00 0.000000000000000000e+00 0.000000000000000000e+00 8.123501193264862863e+00
7.918887045088515819e+00 0.000000000000000000e+00 0.000000000000000000e+00 0.000000000000000000e+00 7.918887045088515819e+00 0.000000000000000000e+00 0.000000000000000000e+00 0.000000000000000000e+00 8.128497950839021158e+00
7.928584679540011670e+00 0.000000000000000000e+00 0.000000000000000000e+00 0.000000000000000000e+00 7.928584679540011670e+00 0.000000000000000000e+00 0.000000000000000000e+00 0.000000000000000000e+00 8.138452279183908900e+00
7.940147009123760924e+00 0.000000000000000000e+00 0.000000000000000000e+00 0.000000000000000000e+00 7.940147009123760924e+00 0.000000000000000000e+00 0.000000000000000000e+00 0.000000000000000000e+00 8.150320660660932859e+00
7.951032508553547373e+00 0.000000000000000000e+00 0.000000000000000000e+00 0.000000000000000000e+00 7.951032508553547373e+00 0.000000000000000000e+00 0.000000000000000000e+00 0.000000000000000000e+00 8.161494296465118481e+00
7.959919965030672451e+00 0.000000000000000000e+00 0.000000000000000000e+00 0.000000000000000000e+00 7.959919965030672451e+00 0.000000000000000000e+00 0.000000000000000000e+00 0.000000000000000000e+00 8.170617001631081067e+00
7.966823346631728420e+00 0.000000000000000000e+00 0.000000000000000000e+00 0.000000000000000000e+00 7.966823346631728420e+00 0.000000000000000000e+00 0.000000000000000000e+00 0.000000000000000000e+00 8.177703113969284843e+00
7.971710652849922418e+00 0.000000000000000000e+00 0.000000000000000000e+00 0.000000000000000000e+00 7.971710652849922418e+00 0.000000000000000000e+00 0.000000000000000000e+00 0.000000000000000000e+00 8.182719785927810463e+00
7.973987309052803951e+00 0.000000000000000000e+00 0.000000000000000000e+00 0.000000000000000000e+00 7.973987309052803951e+00 0.000000000000000000e+00 0.000000000000000000e+00 0.000000000000000000e+00 8.185056704635803371e+00
7.973353532134014543e+00 0.000000000000000000e+00 0.000000000000000000e+00 0.000000000000000000e+00 7.973353532134014543e+00 0.000000000000000000e+00 0.000000000000000000e+00 0.000000000000000000e+00 8.184406151804578755e+00
7.969777835338802241e+00 0.000000000000000000e+00 0.000000000000000000e+00 0.000000000000000000e+00 7.969777835338802241e+00 0.000000000000000000e+00 0.000000000000000000e+00 0.000000000000000000e+00 8.180735807234189139e+00
7.963492163748020047e+00 0.000000000000000000e+00 0.000000000000000000e+00 0.000000000000000000e+00 7.963492163748020047e+00 0.000000000000000000e+00 0.000000000000000000e+00 0.000000000000000000e+00 8.174283755531140727e+00
7.954660124113900110e+00 0.000000000000000000e+00 0.000000000000000000e+00 0.000000000000000000e+00 7.954660124113900110e+00 0.000000000000000000e+00 0.000000000000000000e+00 0.000000000000000000e+00 8.165217934076739681e+00
7.943803954344282658e+00 0.000000000000000000e+00 0.000000000000000000e+00 0.000000000000000000e+00 7.943803954344282658e+00 0.000000000000000000e+00 0.000000000000000000e+00 0.000000000000000000e+00 8.154074404282253496e+00
7.931936789292258538e+00 0.000000000000000000e+00 0.000000000000000000e+00 0.000000000000000000e+00 7.931936789292258538e+00 0.000000000000000000e+00 0.000000000000000000e+00 0.000000000000000000e+00 8.141893118420401976e+00
7.920340385349651235e+00 0.000000000000000000e+00 0.000000000000000000e+00 0.000000000000000000e+00 7.920340385349651235e+00 0.000000000000000000e+00 0.000000000000000000e+00 0.000000000000000000e+00 8.129989760643715258e+00
7.910943386714605730e+00 0.000000000000000000e+00 0.000000000000000000e+00 0.000000000000000000e+00 7.910943386714605730e+00 0.000000000000000000e+00 0.000000000000000000e+00 0.000000000000000000e+00 8.120344025869467686e+00
7.905443561870253433e+00 0.000000000000000000e+00 0.000000000000000000e+00 0.000000000000000000e+00 7.905443561870253433e+00 0.000000000000000000e+00 0.000000000000000000e+00 0.000000000000000000e+00 8.114698622074113743e+00
7.905278076082838723e+00 0.000000000000000000e+00 0.000000000000000000e+00 0.000000000000000000e+00 7.905278076082838723e+00 0.000000000000000000e+00 0.000000000000000000e+00 0.000000000000000000e+00 8.114528755919915071e+00
7.910823800944977613e+00 0.000000000000000000e+00 0.000000000000000000e+00 0.000000000000000000e+00 7.910823800944977613e+00 0.000000000000000000e+00 0.000000000000000000e+00 0.000000000000000000e+00 8.120221274695062164e+00
7.921061121167879193e+00 0.000000000000000000e+00 0.000000000000000000e+00 0.000000000000000000e+00 7.921061121167879193e+00 0.000000000000000000e+00 0.000000000000000000e+00 0.000000000000000000e+00 8.130729574154125672e+00
7.933907598397687444e+00 0.000000000000000000e+00 0.000000000000000000e+00 0.000000000000000000e+00 7.933907598397687444e+00 0.000000000000000000e+00 0.000000000000000000e+00 0.000000000000000000e+00 8.143916094336544731e+00
7.947783054904381750e+00 0.000000000000000000e+00 0.000000000000000000e+00 0.000000000000000000e+00 7.947783054904381750e+00 0.000000000000000000e+00 0.000000000000000000e+00 0.000000000000000000e+00 8.158158830612064705e+00
7.962157385830403555e+00 0.000000000000000000e+00 0.000000000000000000e+00 0.000000000000000000e+00 7.962157385830403555e+00 0.000000000000000000e+00 0.000000000000000000e+00 0.000000000000000000e+00 8.172913646384902364e+00
7.975823202566847847e+00 0.000000000000000000e+00 0.000000000000000000e+00 0.000000000000000000e+00 7.975823202566847847e+00 0.000000000000000000e+00 0.000000000000000000e+00 0.000000000000000000e+00 8.186941193780114645e+00
7.987186158845249295e+00 0.000000000000000000e+00 0.000000000000000000e+00 0.000000000000000000e+00 7.987186158845249295e+00 0.000000000000000000e+00 0.000000000000000000e+00 0.000000000000000000e+00 8.198604924592167720e+00
7.994309379491846279e+00 0.000000000000000000e+00 0.000000000000000000e+00 0.000000000000000000e+00 7.994309379491846279e+00 0.000000000000000000e+00 0.000000000000000000e+00 0.000000000000000000e+00 8.205916695058416366e+00
7.995397500857292172e+00 0.000000000000000000e+00 0.000000000000000000e+00 0.000000000000000000e+00 7.995397500857292172e+00 0.000000000000000000e+00 0.000000000000000000e+00 0.000000000000000000e+00 8.207033618717066048e+00
7.990524111150991260e+00 0.000000000000000000e+00 0.000000000000000000e+00 0.000000000000000000e+00 7.990524111150991260e+00 0.000000000000000000e+00 0.000000000000000000e+00 0.000000000000000000e+00 8.202031231637313624e+00
7.981476158282732492e+00 0.000000000000000000e+00 0.000000000000000000e+00 0.000000000000000000e+00 7.981476158282732492e+00 0.000000000000000000e+00 0.000000000000000000e+00 0.000000000000000000e+00 8.192743781780672307e+00
7.969150284303174736e+00 0.000000000000000000e+00 0.000000000000000000e+00 0.000000000000000000e+00 7.969150284303174736e+00 0.000000000000000000e+00 0.000000000000000000e+00 0.000000000000000000e+00 8.180091645084178964e+00
7.954803082077991583e+00 0.000000000000000000e+00 0.000000000000000000e+00 0.000000000000000000e+00 7.954803082077991583e+00 0.000000000000000000e+00 0.000000000000000000e+00 0.000000000000000000e+00 8.165364676101049213e+00
7.942169132693808642e+00 0.000000000000000000e+00 0.000000000000000000e+00 0.000000000000000000e+00 7.942169132693808642e+00 0.000000000000000000e+00 0.000000000000000000e+00 0.000000000000000000e+00 8.152396309322872625e+00
7.935120822862002044e+00 0.000000000000000000e+00 0.000000000000000000e+00 0.000000000000000000e+00 7.935120822862002044e+00 0.000000000000000000e+00 0.000000000000000000e+00 0.000000000000000000e+00 8.145161432540001911e+00
7.934971403180107075e+00 0.000000000000000000e+00 0.000000000000000000e+00 0.000000000000000000e+00 7.934971403180107075e+00 0.000000000000000000e+00 0.000000000000000000e+00 0.000000000000000000e+00 8.145008057757873843e+00
7.939606992460259249e+00 0.000000000000000000e+00 0.000000000000000000e+00 0.000000000000000000e+00 7.939606992460259249e+00 0.000000000000000000e+00 0.000000000000000000e+00 0.000000000000000000e+00 8.149766349895712025e+00
7.947238091985352249e+00 0.000000000000000000e+00 0.000000000000000000e+00 0.000000000000000000e+00 7.947238091985352249e+00 0.000000000000000000e+00 0.000000000000000000e+00 0.000000000000000000e+00 8.157599442664070111e+00
7.957763533488741103e+00 0.000000000000000000e+00 0.000000000000000000e+00 0.000000000000000000e+00 7.957763533488741103e+00 0.000000000000000000e+00 0.000000000000000000e+00 0.000000000000000000e+00 8.168403489900722292e+00
7.971690129123063073e+00 0.000000000000000000e+00 0.000000000000000000e+00 0.000000000000000000e+00 7.971690129123063073e+00 0.000000000000000000e+00 0.000000000000000000e+00 0.000000000000000000e+00 8.182698718944077854e+00
7.988481459476108881e+00 0.000000000000000000e+00 0.000000000000000000e+00 0.000000000000000000e+00 7.988481459476108881e+00 0.000000000000000000e+00 0.000000000000000000e+00 0.000000000000000000e+00 8.199934511497666279e+00
8.006115867246146323e+00 0.000000000000000000e+00 0.000000000000000000e+00 0.000000000000000000e+00 8.006115867246146323e+00 0.000000000000000000e+00 0.000000000000000000e+00 0.000000000000000000e+00 8.218035697510789106e+00
8.023044199174572455e+00 0.000000000000000000e+00 0.000000000000000000e+00 0.000000000000000000e+00 8.023044199174572455e+00 0.000000000000000000e+00 0.000000000000000000e+00 0.000000000000000000e+00 8.235412118035879914e+00
8.036673826034334667e+00 0.000000000000000000e+00 0.000000000000000000e+00 0.000000000000000000e+00 8.036673826034334667e+00 0.000000000000000000e+00 0.000000000000000000e+00 0.000000000000000000e+00 8.249402517617925312e+00
8.043356482481952341e+00 0.000000000000000000e+00 0.000000000000000000e+00 0.000000000000000000e+00 8.043356482481952341e+00 0.000000000000000000e+00 0.000000000000000000e+00 0.000000000000000000e+00 8.256262062265321333e+00
8.041441057672713555e+00 0.000000000000000000e+00 0.000000000000000000e+00 0.000000000000000000e+00 8.041441057672713555e+00 0.000000000000000000e+00 0.000000000000000000e+00 0.000000000000000000e+00 8.254295936652932042e+00
8.033134508793709827e+00 0.000000000000000000e+00 0.000000000000000000e+00 0.000000000000000000e+00 8.033134508793709827e+00 0.000000000000000000e+00 0.000000000000000000e+00 0.000000000000000000e+00 8.245769515558579954e+00
8.022390849703448623e+00 0.000000000000000000e+00 0.000000000000000000e+00 0.000000000000000000e+00 8.022390849703448623e+00 0.000000000000000000e+00 0.000000000000000000e+00 0.000000000000000000e+00 8.234741474573304743e+00
8.010287478909093650e+00 0.000000000000000000e+00 0.000000000000000000e+00 0.000000000000000000e+00 8.010287478909093650e+00 0.000000000000000000e+00 0.000000000000000000e+00 0.000000000000000000e+00 8.222317730663116109e+00
7.995426537759146690e+00 0.000000000000000000e+00 0.000000000000000000e+00 0.000000000000000000e+00 7.995426537759146690e+00 0.000000000000000000e+00 0.000000000000000000e+00 0.000000000000000000e+00 8.207063424218498326e+00
7.977299986824032629e+00 0.000000000000000000e+00 0.000000000000000000e+00 0.000000000000000000e+00 7.977299986824032629e+00 0.000000000000000000e+00 0.000000000000000000e+00 0.000000000000000000e+00 8.188457068136285599e+00
7.958163485244497792e+00 0.000000000000000000e+00 0.000000000000000000e+00 0.000000000000000000e+00 7.958163485244497792e+00 0.000000000000000000e+00 0.000000000000000000e+00 0.000000000000000000e+00 8.168814028276537798e+00
7.941746308809709554e+00 0.000000000000000000e+00 0.000000000000000000e+00 0.000000000000000000e+00 7.941746308809709554e+00 0.000000000000000000e+00 0.000000000000000000e+00 0.000000000000000000e+00 8.151962293399199311e+00
7.932123454617755698e+00 0.000000000000000000e+00 0.000000000000000000e+00 0.000000000000000000e+00 7.932123454617755698e+00 0.000000000000000000e+00 0.000000000000000000e+00 0.000000000000000000e+00 8.142084724728459122e+00
7.931738397851259670e+00 0.000000000000000000e+00 0.000000000000000000e+00 0.000000000000000000e+00 7.931738397851259670e+00 0.000000000000000000e+00 0.000000000000000000e+00 0.000000000000000000e+00 8.141689475608632875e+00
7.938473331452953197e+00 0.000000000000000000e+00 0.000000000000000000e+00 0.000000000000000000e+00 7.938473331452953197e+00 0.000000000000000000e+00 0.000000000000000000e+00 0.000000000000000000e+00 8.148602681172139484e+00
7.948107166049699579e+00 0.000000000000000000e+00 0.000000000000000000e+00 0.000000000000000000e+00 7.948107166049699579e+00 0.000000000000000000e+00 0.000000000000000000e+00 0.000000000000000000e+00 8.158491520895999827e+00
7.957904409211818297e+00 0.000000000000000000e+00 0.000000000000000000e+00 0.000000000000000000e+00 7.957904409211818297e+00 0.000000000000000000e+00 0.000000000000000000e+00 0.000000000000000000e+00 8.168548094568333084e+00
7.966884958161074337e+00 0.000000000000000000e+00 0.000000000000000000e+00 0.000000000000000000e+00 7.966884958161074337e+00 0.000000000000000000e+00 0.000000000000000000e+00 0.000000000000000000e+00 8.177766356341241050e+00
7.975398354541400892e+00 0.000000000000000000e+00 0.000000000000000000e+00 0.000000000000000000e+00 7.975398354541400892e+00 0.000000000000000000e+00 0.000000000000000000e+00 0.000000000000000000e+00 8.186505100135402557e+00
7.983320287416369787e+00 0.000000000000000000e+00 0.000000000000000000e+00 0.000000000000000000e+00 7.983320287416369787e+00 0.000000000000000000e+00 0.000000000000000000e+00 0.000000000000000000e+00 8.194636724539323680e+00
7.988249574458908597e+00 0.000000000000000000e+00 0.000000000000000000e+00 0.000000000000000000e+00 7.988249574458908597e+00 0.000000000000000000e+00 0.000000000000000000e+00 0.000000000000000000e+00 8.199696488543798623e+00
7.987493235315625384e+00 0.000000000000000000e+00 0.000000000000000000e+00 0.000000000000000000e+00 7.987493235315625384e+00 0.000000000000000000e+00 0.000000000000000000e+00 0.000000000000000000e+00 8.198920129297755821e+00
7.980297505372413447e+00 0.000000000000000000e+00 0.000000000000000000e+00 0.000000000000000000e+00 7.980297505372413447e+00 0.000000000000000000e+00 0.000000000000000000e+00 0.000000000000000000e+00 8.191533930230940896e+00
7.967696062409114433e+00 0.000000000000000000e+00 0.000000000000000000e+00 0.000000000000000000e+00 7.967696062409114433e+00 0.000000000000000000e+00 0.000000000000000000e+00 0.000000000000000000e+00 8.178598930309696868e+00
7.951709024093320366e+00 0.000000000000000000e+00 0.000000000000000000e+00 0.000000000000000000e+00 7.951709024093320366e+00 0.000000000000000000e+00 0.000000000000000000e+00 0.000000000000000000e+00 8.162188719196812769e+00
7.935219490784039209e+00 0.000000000000000000e+00 0.000000000000000000e+00 0.000000000000000000e+00 7.935219490784039209e+00 0.000000000000000000e+00 0.000000000000000000e+00 0.000000000000000000e+00 8.145262712177006037e+00
7.921289502018249884e+00 0.000000000000000000e+00 0.000000000000000000e+00 0.000000000000000000e+00 7.921289502018249884e+00 0.000000000000000000e+00 0.000000000000000000e+00 0.000000000000000000e+00 8.130964000187697494e+00
7.911690622895288350e+00 0.000000000000000000e+00 0.000000000000000000e+00 0.000000000000000000e+00 7.911690622895288350e+00 0.000000000000000000e+00 0.000000000000000000e+00 0.000000000000000000e+00 8.121111041200297365e+00
7.906297223161321774e+00 0.000000000000000000e+00 0.000000000000000000e+00 0.000000000000000000e+00 7.906297223161321774e+00 0.000000000000000000e+00 0.000000000000000000e+00 0.000000000000000000e+00 8.115574879560110588e+00
7.905031030101910439e+00 0.000000000000000000e+00 0.000000000000000000e+00 0.000000000000000000e+00 7.905031030101910439e+00 0.000000000000000000e+00 0.000000000000000000e+00 0.000000000000000000e+00 8.114275170695627537e+00
7.908903161165757645e+00 0.000000000000000000e+00 0.000000000000000000e+00 0.000000000000000000e+00 7.908903161165757645e+00 0.000000000000000000e+00 0.000000000000000000e+00 0.000000000000000000e+00 8.118249796074486824e+00
7.917853635927129652e+00 0.000000000000000000e+00 0.000000000000000000e+00 0.000000000000000000e+00 7.917853635927129652e+00 0.000000000000000000e+00 0.000000000000000000e+00 0.000000000000000000e+00 8.127437187603094415e+00
7.930128858052254870e+00 0.000000000000000000e+00 0.000000000000000000e+00 0.000000000000000000e+00 7.930128858052254870e+00 0.000000000000000000e+00 0.000000000000000000e+00 0.000000000000000000e+00 8.140037331703871004e+00
7.943752873441319196e+00 0.000000000000000000e+00 0.000000000000000000e+00 0.000000000000000000e+00 7.943752873441319196e+00 0.000000000000000000e+00 0.000000000000000000e+00 0.000000000000000000e+00 8.154021971280073444e+00
7.956909932779324457e+00 0.000000000000000000e+00 0.000000000000000000e+00 0.000000000000000000e+00 7.956909932779324457e+00 0.000000000000000000e+00 0.000000000000000000e+00 0.000000000000000000e+00 8.167527294599365106e+00
7.968360202605122566e+00 0.000000000000000000e+00 0.000000000000000000e+00 0.000000000000000000e+00 7.968360202605122566e+00 0.000000000000000000e+00 0.000000000000000000e+00 0.000000000000000000e+00 8.179280650126511176e+00
7.977440072941655025e+00 0.000000000000000000e+00 0.000000000000000000e+00 0.000000000000000000e+00 7.977440072941655025e+00 0.000000000000000000e+00 0.000000000000000000e+00 0.000000000000000000e+00 8.188600862298562433e+00
7.983386677863205882e+00 0.000000000000000000e+00 0.000000000000000000e+00 0.000000000000000000e+00 7.983386677863205882e+00 0.000000000000000000e+00 0.000000000000000000e+00 0.000000000000000000e+00 8.194704872324043876e+00
7.985391348478718676e+00 0.000000000000000000e+00 0.000000000000000000e+00 0.000000000000000000e+00 7.985391348478718676e+00 0.000000000000000000e+00 0.000000000000000000e+00 0.000000000000000000e+00 8.196762606055109757e+00
7.982693844710362363e+00 0.000000000000000000e+00 0.000000000000000000e+00 0.000000000000000000e+00 7.982693844710362363e+00 0.000000000000000000e+00 0.000000000000000000e+00 0.000000000000000000e+00 8.193993700055765217e+00
7.975559069715276728e+00 0.000000000000000000e+00 0.000000000000000000e+00 0.000000000000000000e+00 7.975559069715276728e+00 0.000000000000000000e+00 0.000000000000000000e+00 0.000000000000000000e+00 8.186670069398788385e+00
7.965780001983533865e+00 0.000000000000000000e+00 0.000000000000000000e+00 0.000000000000000000e+00 7.965780001983533865e+00 0.000000000000000000e+00 0.000000000000000000e+00 0.000000000000000000e+00 8.176632152257061747e+00
7.956538735595047207e+00 0.000000000000000000e+00 0.000000000000000000e+00 0.000000000000000000e+00 7.956538735595047207e+00 0.000000000000000000e+00 0.000000000000000000e+00 0.000000000000000000e+00 8.167146271921644995e+00
7.950204413037314843e+00 0.000000000000000000e+00 0.000000000000000000e+00 0.000000000000000000e+00 7.950204413037314843e+00 0.000000000000000000e+00 0.000000000000000000e+00 0.000000000000000000e+00 8.160644281472061223e+00
7.947073433109178353e+00 0.000000000000000000e+00 0.000000000000000000e+00 0.000000000000000000e+00 7.947073433109178353e+00 0.000000000000000000e+00 0.000000000000000000e+00 0.000000000000000000e+00 8.157430425309984301e+00
7.946117710381606081e+00 0.000000000000000000e+00 0.000000000000000000e+00 0.000000000000000000e+00 7.946117710381606081e+00 0.000000000000000000e+00 0.000000000000000000e+00 0.000000000000000000e+00 8.156449404847034401e+00
7.946368444594304137e+00 0.000000000000000000e+00 0.000000000000000000e+00 0.000000000000000000e+00 7.946368444594304137e+00 0.000000000000000000e+00 0.000000000000000000e+00 0.000000000000000000e+00 8.156706775930528508e+00
7.949884509255777054e+00 0.000000000000000000e+00 0.000000000000000000e+00 0.000000000000000000e+00 7.949884509255777054e+00 0.000000000000000000e+00 0.000000000000000000e+00 0.000000000000000000e+00 8.160315909920266009e+00
7.959350345741571964e+00 0.000000000000000000e+00 0.000000000000000000e+00 0.000000000000000000e+00 7.959350345741571964e+00 0.000000000000000000e+00 0.000000000000000000e+00 0.000000000000000000e+00 8.170032304665772571e+00
7.973568033762278517e+00 0.000000000000000000e+00 0.000000000000000000e+00 0.000000000000000000e+00 7.973568033762278517e+00 0.000000000000000000e+00 0.000000000000000000e+00 0.000000000000000000e+00 8.184626331236161789e+00
7.988569209861990927e+00 0.000000000000000000e+00 0.000000000000000000e+00 0.000000000000000000e+00 7.988569209861990927e+00 0.000000000000000000e+00 0.000000000000000000e+00 0.000000000000000000e+00 8.200024584613176515e+00
8.000876871771383847e+00 0.000000000000000000e+00 0.000000000000000000e+00 0.000000000000000000e+00 8.000876871771383847e+00 0.000000000000000000e+00 0.000000000000000000e+00 0.000000000000000000e+00 8.212658027171277908e+00
8.008531533546845438e+00 0.000000000000000000e+00 0.000000000000000000e+00 0.000000000000000000e+00 8.008531533546845438e+00 0.000000000000000000e+00 0.000000000000000000e+00 0.000000000000000000e+00 8.220515305878414836e+00
8.010924842406238255e+00 0.000000000000000000e+00 0.000000000000000000e+00 0.000000000000000000e+00 8.010924842406238255e+00 0.000000000000000000e+00 0.000000000000000000e+00 0.000000000000000000e+00 8.222971965008145645e+00
8.010341169979032117e+00 0.000000000000000000e+00 0.000000000000000000e+00 0.000000000000000000e+00 8.010341169979032117e+00 0.000000000000000000e+00 0.000000000000000000e+00 0.000000000000000000e+00 8.222372842921872760e+00
8.010494781979796031e+00 0.000000000000000000e+00 0.000000000000000000e+00 0.000000000000000000e+00 8.010494781979796031e+00 0.000000000000000000e+00 0.000000000000000000e+00 0.000000000000000000e+00 8.222530520992231473e+00
8.012976653177398489e+00 0.000000000000000000e+00 0.000000000000000000e+00 0.000000000000000000e+00 8.012976653177398489e+00 0.000000000000000000e+00 0.000000000000000000e+00 0.000000000000000000e+00 8.225078086683675238e+00