2.002683254000000180e-03 7.933803841309000404e+00 2.603547619000000021e-03 3.619534859999999914e-04 7.932526956011000330e+00 4.076863425451000111e+00 7.926799872735999841e+00 3.969132429660000128e+00 8.143776216553000324e+00 6.071343067999999607e-03 3.959769918677999989e+00 4.073611648994999612e+00 3.968473524376999961e+00 5.181294817999999684e-03 8.141574061799000006e+00 3.966530324404999863e+00 7.933759000386999993e+00 4.073873474112000181e+00 3.961579576847999995e+00 3.966560181579000144e+00 6.517650109999999610e-04 3.969788973943999988e+00 3.970620377178000204e+00 4.067501557963000280e+00 1.994909568570000014e+00 1.986331269389999932e+00 2.105195697815999800e+00 1.984581941402000060e+00 1.979593675385999951e+00 6.183357810723999926e+00 1.982703300434000004e+00 5.960521242152999832e+00 2.103889158518999825e+00 1.987069526877000003e+00 5.943508938416999676e+00 6.172240831684000284e+00 5.949440481518999846e+00 1.978926583712000031e+00 2.098970704060000081e+00 5.952442248288000393e+00 1.988655748765999931e+00 6.175777936841999605e+00 5.948710769347999694e+00 5.947106216409999924e+00 2.095179378682999971e+00 5.950834141592999949e+00 5.947562464113000047e+00 6.185457923899000399e+00 7.934371463827999627e+00 2.005249764078000041e+00 1.960464844252999939e+00 7.927047024524999763e+00 1.982939205145999972e+00 6.039865103081999642e+00 1.386490393999999932e-03 5.953012596015000213e+00 1.950981723443000027e+00 8.181706408000000499e-03 5.964777373232999835e+00 6.018404419787000137e+00 3.970614747832999836e+00 1.974845392198000038e+00 1.958445846822999936e+00 3.975771543363999960e+00 1.993950262358999970e+00 6.027292291176999939e+00 3.962985244491000092e+00 5.954930548931000267e+00 1.949116322210999952e+00 3.979123199532999866e+00 5.956737761846000012e+00 6.033460144672999625e+00 1.985842994478000056e+00 9.584646622000000601e-03 1.958938162039000064e+00 1.989742051569999948e+00 7.930979077865999649e+00 6.044893084535000405e+00 1.984491718121000003e+00 3.973697752052999910e+00 1.959129796540999946e+00 1.966514212440999998e+00 3.987474910711000131e+00 6.022864422858999589e+00 5.957275296814000143e+00 7.920078173695999979e+00 1.970388702324999963e+00 5.942174992148999912e+00 7.932047375754000207e+00 6.017112679555999932e+00 5.940613213585000274e+00 3.961586436899000141e+00 1.974529759176999910e+00 5.927732044999999950e+00 3.967390945680000058e+00 6.048881681914999753e+00 1.997482313382000108e+00 1.974079706259000089e+00 3.957569578290999868e+00 1.974613107286999902e+00 1.976226688501000028e+00 8.006123839031999978e+00 1.986832116068999898e+00 5.936101110002000247e+00 3.936733635607000181e+00 1.986588874471999944e+00 5.947766628063000383e+00 8.019056824535999439e+00 5.942043876249000434e+00 1.989178862551000071e+00 3.937160464441999963e+00 5.949446333353000327e+00 1.977158331660999968e+00 8.010749908553000509e+00 5.957626920225999712e+00 5.957987868952000277e+00 3.944686821000999988e+00 5.951429342411000079e+00 5.958356726873000220e+00 8.029318381590000442e+00
1.193353638000000001e-02 7.928770235675999700e+00 1.549617429799999939e-02 1.702667997000000075e-03 7.921181822863999855e+00 4.099002697161999720e+00 7.887544115943000200e+00 3.977922955671000071e+00 8.139151281840000252e+00 3.576117370999999656e-02 3.922286205699000217e+00 4.079122990443999619e+00 3.973967291231999877e+00 3.026119943200000079e-02 8.125260080792999773e+00 3.962893974715000045e+00 7.928456245448000317e+00 4.081438028834000420e+00 3.932720775532000168e+00 3.962847662569000118e+00 4.030830323000000014e-03 3.982018863208999893e+00 3.986845637477999915e+00 4.043230034061999767e+00 2.046914164741000075e+00 2.000714054398999853e+00 2.112428711374000123e+00 1.990213059550000052e+00 1.956395254492000024e+00 6.205437167358000217e+00 1.977595528546999937e+00 6.004082665608000191e+00 2.095580457003999975e+00 2.002300994832999947e+00 5.907767844478000185e+00 6.151555712439000345e+00 5.944775846747999637e+00 1.956035937418000081e+00 2.073376859135999783e+00 5.957164151443000044e+00 2.009629867099000045e+00 6.167024326467999806e+00 5.937562355972000105e+00 5.928644690116000149e+00 2.053736816372000007e+00 5.948953990109999701e+00 5.934207164644000443e+00 6.221424912412000019e+00 9.777704339999999852e-04 2.102982589046999973e+00 1.963455368820000047e+00 7.896902219857000027e+00 1.982110610529000061e+00 6.073388385727000127e+00 1.016897142400000065e-02 5.960431828573000246e+00 1.909196902392999995e+00 3.936643465399999875e-02 6.027736460904000282e+00 5.958445117952000381e+00 3.978610822887000076e+00 1.933792514721000000e+00 1.947125916799999912e+00 3.999296490153000150e+00 2.043895292849000178e+00 6.008722820464000414e+00 3.943936203140999908e+00 5.974451858465999798e+00 1.899185129644000103e+00 4.029643132599000310e+00 5.981290403772000275e+00 6.040851484230000068e+00 1.993509892677999940e+00 5.663328452799999690e-02 1.955175482622000027e+00 2.019676175164000220e+00 7.925884505892000220e+00 6.103074050932000283e+00 1.991705933448999932e+00 3.991108762831999890e+00 1.955457668113999903e+00 1.889210870859000080e+00 4.066456914463000061e+00 5.982654194428000061e+00 5.986810371536999575e+00 7.864240560344000208e+00 2.017211674739999960e+00 5.901612214670000078e+00 7.922020424137000028e+00 5.951160693084999842e+00 5.888649381809000438e+00 3.935373322039000143e+00 2.037000038184999973e+00 5.826305464044000182e+00 3.972342085216999941e+00 6.128610054093000414e+00 2.060677838573000020e+00 1.931711669297000000e+00 4.011200514643999959e+00 1.935323738938999893e+00 1.947058714621000108e+00 7.976641975764000136e+00 2.003243461334999864e+00 5.872473009723999660e+00 3.911624560762999803e+00 2.000409946320000021e+00 5.931542435088999810e+00 8.028157564637000476e+00 5.901429914276000055e+00 2.013428111782999963e+00 3.909467585429999836e+00 5.941017745639999958e+00 1.944514720709999978e+00 7.998050612475999799e+00 5.987821625105000045e+00 5.983419446536999864e+00 3.945193964730000058e+00 5.955584858044000285e+00 5.990801506437000157e+00 8.089316338839999787e+00
2.170611362799999833e-02 7.923224438773000422e+00 2.783278149200000065e-02 1.399744858999999895e-03 7.909301616477000252e+00 4.119879152044999771e+00 7.850567454009000024e+00 3.986270371843999794e+00 8.136050298314000173e+00 6.288409803000000187e-02 3.886977791225000090e+00 4.081974491547000206e+00 3.979339161540000003e+00 5.249005891399999985e-02 8.108154096925000331e+00 3.961407651080000036e+00 7.922032623653000094e+00 4.089127049813000347e+00 3.904251048133000168e+00 3.960148564129000182e+00 7.869891501000000553e-03 3.994883792835000058e+00 4.003026041759000009e+00 4.019549454612000083e+00 2.083698432509000220e+00 2.019487276332000203e+00 2.132719845302000206e+00 2.000388858853999974e+00 1.923228982963999911e+00 6.200922819475000125e+00 1.972025306778000031e+00 6.034426701357999967e+00 2.076103542333000096e+00 2.010916806241000110e+00 5.883128082308999751e+00 6.143570853896999751e+00 5.953035474954000428e+00 1.936773290352999943e+00 2.059716555557999929e+00 5.953832733522999909e+00 2.017054352166999909e+00 6.154951993996999882e+00 5.928447956147000042e+00 5.914668075808999781e+00 2.035665691469000116e+00 5.945133132968999590e+00 5.935193402823999875e+00 6.238562293939000192e+00 2.157187473999999921e-03 2.161808072131000014e+00 1.964937648722000052e+00 7.889220390794999815e+00 1.990958138022000057e+00 6.085589618268000045e+00 2.678049449000000082e-02 5.959357317823999800e+00 1.876650230227999927e+00 4.014423391400000207e-02 6.069495693109000278e+00 5.932416381960999630e+00 3.966385407749000169e+00 1.906078389846000087e+00 1.921550916561000077e+00 3.967913887822999808e+00 2.084953491257000024e+00 6.009706831905999636e+00 3.935718764579000162e+00 5.994976553395000352e+00 1.862742105361000045e+00 4.045831384589999580e+00 5.991698490439000047e+00 6.050008123760999723e+00 1.988788639809000003e+00 8.571745002899999744e-02 1.952616856726000050e+00 2.045694730878000023e+00 2.815148084799999964e-02 6.138740697643999766e+00 2.010785158427999875e+00 3.969294850620999959e+00 1.951765521632000011e+00 1.844156705125000073e+00 4.070155874850000188e+00 5.965092607177999717e+00 6.009597624447000186e+00 7.869028453620000363e+00 2.040558013859000042e+00 5.876721954814000171e+00 7.928018469367000165e+00 5.919796024944999679e+00 5.840313524595000416e+00 3.925011439771000088e+00 2.055637240809999877e+00 5.781523119980000125e+00 3.990768072660999977e+00 6.191482169289000304e+00 2.100081113822000134e+00 1.912566473008000090e+00 4.015558340091000211e+00 1.918431346475000021e+00 1.948334155990000038e+00 8.002486908890000805e+00 2.021288530792999971e+00 5.850333999940000140e+00 3.906874019728999947e+00 2.010420996491999901e+00 5.916552777663000029e+00 8.013373600363999927e+00 5.878139746780999708e+00 2.024915612739000004e+00 3.898538808351999840e+00 5.931935308103000182e+00 1.914378408114999930e+00 8.015152068785999617e+00 6.006709610647000375e+00 5.975090303108999912e+00 3.927743985590999909e+00 5.966538292223000362e+00 6.008645782221000431e+00 8.114691235990999729e+00
3.156665507099999657e-02 7.919151168542000185e+00 3.943948686700000233e-02 7.930904925763000435e+00 7.897851926970999692e+00 4.138299165673999802e+00 7.818327960733999937e+00 3.992786337067999902e+00 8.135411639724999588e+00 8.629744157099999979e-02 3.855404049707999992e+00 4.081126381677999682e+00 3.984366445260000056e+00 7.136165632999999509e-02 8.091579389912000764e+00 3.962898076632999977e+00 7.914995648629999714e+00 4.096142041751999585e+00 3.876571916534000017e+00 3.958042472938000156e+00 1.223190431299999922e-02 4.008585389195999937e+00 4.019080299958000424e+00 3.997440573800000063e+00 2.099811346332999928e+00 2.043075751046000033e+00 2.154864019434000078e+00 2.015507145403999889e+00 1.887260370651000052e+00 6.183417389838999689e+00 1.967051109707000034e+00 6.050095300750999883e+00 2.049876538379999946e+00 2.009734950414999943e+00 5.868445259906000189e+00 6.147444787088000240e+00 5.978630319077000266e+00 1.922242650882999948e+00 2.059101058353999925e+00 5.942668809100999816e+00 2.008568979127999921e+00 6.145534238561999985e+00 5.921360750846999643e+00 5.906070357141000038e+00 2.045676703932000073e+00 5.940845616507999694e+00 5.951682046682000404e+00 6.234732995497999752e+00 7.914765874228000264e+00 2.167055982117000124e+00 1.970180652300999924e+00 7.885634346030999886e+00 2.007188910415000027e+00 6.068225171832000164e+00 5.040596493300000119e-02 5.947074664798999599e+00 1.861508235677000078e+00 1.275958313400000002e-02 6.081618107321999922e+00 5.954183559696000216e+00 3.950816985483999844e+00 1.897365232984000061e+00 1.890121600924999923e+00 3.902162210010000187e+00 2.110214429295000027e+00 6.033126368810999729e+00 3.945176764841999972e+00 6.017177026887999602e+00 1.848142302395000103e+00 4.013775133452000432e+00 5.986538921403999680e+00 6.058014042304000313e+00 1.965625960019999896e+00 6.012480917400000319e-02 1.954028454259999936e+00 2.059985729465999782e+00 7.709395923100000048e-02 6.140183319679000107e+00 2.043038522878999785e+00 3.927497351297999817e+00 1.955580384724999954e+00 1.844520978160000046e+00 4.014680069816000341e+00 5.978176992203000140e+00 6.023108188925999862e+00 7.027705950000000300e-04 2.037373642853999911e+00 5.871069018634000436e+00 2.780013484300000032e-02 5.933532204236000140e+00 5.803475374149999588e+00 3.948818083981000093e+00 2.016564050790000007e+00 5.811438705105000047e+00 4.014693304890999848e+00 6.224267502837999899e+00 2.104188790189000180e+00 1.922858513105000000e+00 3.986247464189999867e+00 1.928897202071000017e+00 1.984388683663000030e+00 8.050422530663999154e+00 2.037098477730999946e+00 5.882610712002000142e+00 3.913263235370000093e+00 2.011808892268999838e+00 5.907414949238999569e+00 7.978566649103999708e+00 5.876539271591999736e+00 2.022371166106999851e+00 3.923876767778000207e+00 5.924307452213000147e+00 1.894029147332999985e+00 8.037754144188999916e+00 6.008220337296999780e+00 5.930937192518999979e+00 3.895471757743000030e+00 5.983420147884999984e+00 6.013332367012999669e+00 8.088992140579000178e+00
4.153174175600000267e-02 7.919646891405999867e+00 4.997383006799999833e-02 7.927452352843999961e+00 7.888614790233000384e+00 4.153890470506000021e+00 7.793215132765999975e+00 3.996289020193000141e+00 8.137471583825000465e+00 1.056703543949999990e-01 3.829288126114000157e+00 4.077979431262000354e+00 3.989117895501999911e+00 8.712606992799999672e-02 8.078403118090999868e+00 3.967336159797000050e+00 7.909255168734000030e+00 4.101559670434999916e+00 3.851105069489999977e+00 3.956055020089999985e+00 1.615401412000000078e-02 4.022995492626000313e+00 4.034880989200999579e+00 3.978770590219999903e+00 2.099278967230000070e+00 2.065506268755000097e+00 2.156188191715000091e+00 2.028588770290999932e+00 1.874146816227999945e+00 6.177646169091000061e+00 1.964436807588999967e+00 6.058298034259999909e+00 2.029086132460999892e+00 1.999598469843000048e+00 5.849861306895999924e+00 6.153707145634999875e+00 6.017591554345999683e+00 1.913566011893000018e+00 2.068735971140999830e+00 5.933464052030999802e+00 1.990806882885999940e+00 6.144022380216999757e+00 5.915266983194999995e+00 5.899586660096000301e+00 2.071363172333999803e+00 5.939112901078000384e+00 5.974018684513000110e+00 6.219050278526999875e+00 7.869888636049999775e+00 2.125320047697000003e+00 1.985390645889000050e+00 7.863423178789999746e+00 2.018945508495999963e+00 6.027535042374999819e+00 6.569250755800000452e-02 5.924554439026000097e+00 1.866941593469999994e+00 7.902623151590000283e+00 6.066618376535999779e+00 6.014447765866999696e+00 3.946736043742999911e+00 1.904991565805999931e+00 1.875226941760000043e+00 3.861759087823000147e+00 2.116593455819999914e+00 6.067440258869999603e+00 3.976556349537999857e+00 6.042093846492999631e+00 1.857139845332999917e+00 3.950497984254000006e+00 5.974343507479000337e+00 6.056938148909999597e+00 1.928503700515999952e+00 7.907574253066999681e+00 1.959873809666000000e+00 2.054318347119000077e+00 7.017796229299999577e-02 6.105693228628999769e+00 2.077419638585999984e+00 3.905241647876000144e+00 1.976371707655000032e+00 1.884825651040000105e+00 3.972847826671999982e+00 6.012901032949000246e+00 6.030225389463000241e+00 7.521916708199999357e-02 2.017174416265000048e+00 5.875309622558999578e+00 7.297777941199999618e-02 5.981208307003000435e+00 5.790624591668000143e+00 4.010588269636000014e+00 1.931637150043000073e+00 5.898611304153000390e+00 4.033616382972000203e+00 6.215145814835000060e+00 2.073576132023000174e+00 1.950486277665999912e+00 3.967057826426000133e+00 1.954937103575000057e+00 2.032986710062000046e+00 8.070650144896999834e+00 2.043022146244000137e+00 5.957413716817000271e+00 3.918703575609999934e+00 2.000673393296000135e+00 5.910982640989000281e+00 7.955276389530999914e+00 5.890652984776999723e+00 2.017944475969000173e+00 3.984802713640000160e+00 5.921589458471999912e+00 1.892365002018000064e+00 8.039142272289000246e+00 5.993825254967999783e+00 5.877022495061000384e+00 3.869440229632000072e+00 5.999722878014999594e+00 6.021187588976999905e+00 8.029388048755999208e+00
5.085553443799999823e-02 7.927226125782000032e+00 5.835993141500000342e-02 7.927508815384999963e+00 7.883952683822999852e+00 4.168268750645999887e+00 7.777533860900000207e+00 3.997954510856999821e+00 8.143014051301999956e+00 1.205641409270000047e-01 3.811360940387999996e+00 4.076046633988999801e+00 3.994747810714000202e+00 9.916741976600000619e-02 8.072232210524999729e+00 3.974651893689999937e+00 7.908115423348999862e+00 4.105985969109999800e+00 3.831137771527000080e+00 3.955853775872999911e+00 1.804549717099999950e-02 4.038555837500999779e+00 4.050738699194999626e+00 3.966281732756999912e+00 2.093991255979000154e+00 2.080470411009999854e+00 2.127758338150000039e+00 2.031609380047000091e+00 1.892700018693999953e+00 6.190980881079999776e+00 1.963905547730999901e+00 6.061512437459000147e+00 2.024078158310000042e+00 1.985138683870999898e+00 5.827629455842999739e+00 6.155088408289000057e+00 6.055021064135999609e+00 1.913475627930000034e+00 2.087636314313999986e+00 5.938470872797999789e+00 1.977298969687000030e+00 6.150234726444000266e+00 5.912672382879000210e+00 5.894608734644999792e+00 2.091311960227999922e+00 5.944041136987999963e+00 5.988455138429999991e+00 6.201633071007999654e+00 7.847531639951999871e+00 2.061528860920999850e+00 2.008320158795999788e+00 7.842949800385000003e+00 2.015019032241999852e+00 5.984313339119999853e+00 5.611772647600000302e-02 5.895644300357999690e+00 1.891081237102999912e+00 7.868338694576999970e+00 6.038866136296999976e+00 6.083277168391999723e+00 3.939901322338999812e+00 1.922739380197000081e+00 1.895789177634999989e+00 3.879848614392999995e+00 2.103743408287999994e+00 6.097465668335999567e+00 4.021974468492000021e+00 6.072274535753999558e+00 1.886019482008000070e+00 3.897100742391999884e+00 5.963248388079000151e+00 6.042765788512999947e+00 1.892920859151000057e+00 7.840004129529999588e+00 1.963415929990000031e+00 2.024410064306000123e+00 1.176623521799999988e-02 6.050728108400000416e+00 2.098570253330999780e+00 3.915597810565000003e+00 2.016202823986000148e+00 1.941687653313999951e+00 3.975789313828999916e+00 6.049785847886999690e+00 6.033989149043000211e+00 1.059636498030000068e-01 1.994094168801999967e+00 5.876903608566999893e+00 9.390155944200000160e-02 6.038447121322000122e+00 5.810347307872000044e+00 4.079706097619999916e+00 1.831370566269000077e+00 6.001399240621999809e+00 4.049091033060999933e+00 6.163048818537999907e+00 2.020108458573000032e+00 1.975946908200999941e+00 3.975232556083999835e+00 1.973728982142000099e+00 2.062622163322000102e+00 8.060347917541999863e+00 2.033653333478000036e+00 6.040768078903999694e+00 3.922846673643999971e+00 1.978267808767999902e+00 5.928273088506999855e+00 7.982980234296999988e+00 5.910572144918999626e+00 2.025622562341999888e+00 4.043298163043999693e+00 5.927547278851999835e+00 1.916967622325999931e+00 8.030213757581000422e+00 5.973157276497000012e+00 5.847713030855000049e+00 3.887048504393999959e+00 6.004401031631999786e+00 6.050162657048000270e+00 7.979826314211000415e+00
5.834690497100000067e-02 7.941080227042999873e+00 6.336287639200000044e-02 7.933219164944000035e+00 7.884398528788000071e+00 4.182689180348000413e+00 7.771649166169000367e+00 4.000090508469000383e+00 8.151806260547999727e+00 1.301673941469999873e-01 3.803888231901999983e+00 4.077562463726000175e+00 4.002219901150000148e+00 1.059299005719999964e-01 8.074381752205999518e+00 3.983984574298999881e+00 7.913357954023999774e+00 4.110438050930000031e+00 3.819607085003999813e+00 3.960044750184000151e+00 1.685306113299999894e-02 4.055203258267000344e+00 4.066260321561999902e+00 3.961846583504000208e+00 2.091217246180999911e+00 2.086079908642000103e+00 2.088643492734000073e+00 2.025664780679000021e+00 1.923206929330000037e+00 6.209311221893999644e+00 1.960609062479000020e+00 6.054972619064000305e+00 2.036842304323000175e+00 1.970845401597999924e+00 5.820072487433000319e+00 6.156635216478999695e+00 6.074123602126999977e+00 1.917849068415000025e+00 2.115046121289999803e+00 5.961484050561000281e+00 1.978416517072000058e+00 6.161088667836000177e+00 5.920920453395999594e+00 5.899865833284000161e+00 2.097240073806000193e+00 5.957509075058999848e+00 5.985793193996999939e+00 6.185122555160000424e+00 7.896268485212999622e+00 2.006256513560999988e+00 2.028185780063000099e+00 7.867669549860999645e+00 1.992492007195999948e+00 5.965074252608999927e+00 2.410193248399999932e-02 5.868457947165000022e+00 1.930197286272999913e+00 7.873849666211000020e+00 6.012274121667999793e+00 6.130463427901999829e+00 3.919632092896999875e+00 1.945099287829999968e+00 1.950435174177999942e+00 3.927712244718000179e+00 2.073832563709999910e+00 6.115189124442999891e+00 4.052516695461999774e+00 6.104600890967000204e+00 1.928386225017000077e+00 3.882016886679000134e+00 5.953342375443000378e+00 6.021585445384999957e+00 1.873462117684999928e+00 7.872957478067999837e+00 1.954569475750999930e+00 1.976921031864999900e+00 7.932259247543999692e+00 6.005600573617000393e+00 2.097177061670000064e+00 3.940619665080999923e+00 2.061345280753999809e+00 1.990027139181000049e+00 3.989964693692999997e+00 6.073840819263000235e+00 6.032927735910999623e+00 8.769483216399999448e-02 1.979514827091999996e+00 5.871573866770999572e+00 7.090508403499999612e-02 6.080479206617999566e+00 5.857335949624999927e+00 4.100121465201000071e+00 1.749140880331000014e+00 6.078036095115000315e+00 4.058788776819000077e+00 6.082914681723000427e+00 1.964723956338999988e+00 1.988048885270000010e+00 3.981593114719999882e+00 1.969126583833999966e+00 2.058747213334000126e+00 8.046893762037999664e+00 2.009147367984000176e+00 6.092746195751000293e+00 3.933025421422999823e+00 1.953519260750999909e+00 5.949526934630999797e+00 8.055922249540000024e+00 5.927424917187999576e+00 2.048254544283000023e+00 4.047002788477000124e+00 5.943896941510000254e+00 1.969414328125000058e+00 8.040579650125000200e+00 5.955501915365999821e+00 5.859993860962999790e+00 3.950058400554000038e+00 5.985682050969000301e+00 6.100088278315999979e+00 7.981504053143999577e+00
6.314074159400000219e-02 1.462957337999999923e-03 6.471778242600000064e-02 7.942713406584999802e+00 7.887349512616999903e+00 4.195273981026000243e+00 7.773133297243999706e+00 4.002954566249999679e+00 8.160935646662000664e+00 1.343605678579999907e-01 3.806405104012000162e+00 4.080979085564999664e+00 4.010532733127000427e+00 1.063054501390000017e-01 8.082286295373000584e+00 3.992589884641000175e+00 7.923008802186999766e+00 4.114099452598000362e+00 3.816521405355000063e+00 3.968921188033000202e+00 1.281887423300000044e-02 4.070711477947999590e+00 4.079129351694000150e+00 3.964620572225999950e+00 2.083715648694000055e+00 2.076980638516999988e+00 2.064639970102999822e+00 2.014281584328000196e+00 1.946620144164999955e+00 6.211037310491000163e+00 1.948368064100999941e+00 6.049097655301999943e+00 2.062308931162000203e+00 1.959867264859000091e+00 5.841664177559000137e+00 6.165990228653999594e+00 6.078955651810000305e+00 1.918100506467000033e+00 2.145035277339999880e+00 5.996578337907999767e+00 1.991114783875999938e+00 6.176287044707000184e+00 5.942363661022000088e+00 5.917989733311999956e+00 2.095803335452000038e+00 5.976046508792999923e+00 5.966123813491000405e+00 6.171673186425000068e+00 1.472617117500000031e-02 1.977989940192000029e+00 2.035327054704000105e+00 7.936679794594000192e+00 1.958311703774000101e+00 5.985732311875000100e+00 7.944533373780999774e+00 5.854418184204000397e+00 1.980315678628000065e+00 7.932687801769000124e+00 5.990051931208999925e+00 6.144957346620000038e+00 3.914521293607000185e+00 1.967446665583999943e+00 2.016078730357000026e+00 3.968961874585999805e+00 2.035286714800999874e+00 6.118042422327000018e+00 4.043738448751000192e+00 6.123595692474999908e+00 1.978185786415000091e+00 3.898656176870999968e+00 5.941027334560000206e+00 6.006579482919000235e+00 1.880020418450000008e+00 1.713659881899999918e-02 1.934428133059999944e+00 1.930647926625999933e+00 3.315258960399999899e-02 5.996687086031999847e+00 2.075552985818000185e+00 3.975981936330999833e+00 2.089003079683999786e+00 2.015109171334999782e+00 3.985746719760999923e+00 6.079157417793999763e+00 6.024379714789000140e+00 5.929046680800000024e-02 1.980413478121999971e+00 5.868218838673000093e+00 3.246228213200000323e-02 6.089121508307999697e+00 5.909440193534999608e+00 4.056633989213000113e+00 1.719147956608999994e+00 6.105323636512999919e+00 4.047177919065999774e+00 6.000684152407999683e+00 1.931113367493000110e+00 1.986737075946999997e+00 3.966260221189000124e+00 1.943488774433999922e+00 2.030937954705999804e+00 8.052089919100000159e+00 1.974019347904000021e+00 6.089492317272999777e+00 3.951667213207000096e+00 1.939611138962999970e+00 5.961611556112000443e+00 8.127321522768999884e+00 5.939021797421999871e+00 2.076646101909000119e+00 3.979570187294000139e+00 5.967332965347000417e+00 2.037131784437999915e+00 8.063435294134999154e+00 5.944833797675999953e+00 5.912652041120000312e+00 4.009322309694000275e+00 5.942162133530000112e+00 6.144242579431000273e+00 8.024478196617000236e+00
6.496309112100000227e-02 6.324045920999999716e-03 6.303811253699999340e-02 7.952349700279000011e+00 7.889731229224000053e+00 4.202695167362000106e+00 7.779611024451000389e+00 4.004749705983000396e+00 8.167459526817999915e+00 1.342220755809999944e-01 3.816572317553999838e+00 4.082786735263000288e+00 4.017528595924000356e+00 1.006137566070000045e-01 8.092361366242000642e+00 3.997445372152999887e+00 7.933738633035000376e+00 4.114938686956000069e+00 3.819672714405999869e+00 3.980342779095999983e+00 7.308818021999999824e-03 4.081707132164000384e+00 4.086419993245000271e+00 3.971727497443000132e+00 2.064590728764000183e+00 2.048528421060999971e+00 2.066953723598000003e+00 2.000062818618999927e+00 1.956672305281000002e+00 6.190105790526000185e+00 1.930019159875000057e+00 6.050324431036999684e+00 2.093790213605999817e+00 1.955561194221999921e+00 5.884452903773000010e+00 6.183639121531999905e+00 6.078853683404999764e+00 1.915255635150000080e+00 2.161562322199999997e+00 6.031164142803000061e+00 2.005776081881999851e+00 6.200044661338999674e+00 5.967540407523999946e+00 5.940259295608999679e+00 2.090687426405000160e+00 5.990546157749999878e+00 5.938315106237999963e+00 6.163764053510999652e+00 2.930967262399999940e-02 1.981891863361999961e+00 2.024344214764000061e+00 2.871861535399999887e-02 1.929709199599999980e+00 6.038880658563999582e+00 7.925305634935000398e+00 5.867428004016000287e+00 2.034078430370999779e+00 4.682530770900000111e-02 5.969378293523000423e+00 6.133211280990000347e+00 3.949040016235000117e+00 1.987921534550000091e+00 2.064342400925999854e+00 4.002675560303999625e+00 1.999953863695000056e+00 6.104396577555999848e+00 4.001299692605000402e+00 6.111754462518000253e+00 2.031768277803999823e+00 3.930030530925999965e+00 5.927511498482999741e+00 6.010742986904999974e+00 1.913620540309000084e+00 8.142701909800000026e-02 1.914869897827000012e+00 1.909874182283999966e+00 1.029785271750000009e-01 6.029370546140000009e+00 2.041094038609999828e+00 4.029784847241000278e+00 2.081733015061999925e+00 2.014458468038000216e+00 3.984329118598000097e+00 6.068142234531999968e+00 6.011147664811000269e+00 3.741769983900000013e-02 1.996034149373999922e+00 5.885503640100999689e+00 1.245925456999999979e-02 6.060545842187000432e+00 5.944454024933000014e+00 3.997224369521000131e+00 1.767688426457999951e+00 6.084737185776000423e+00 4.008965532782999830e+00 5.941282378937000175e+00 1.932556118416999924e+00 1.977879187364000035e+00 3.942829767536999874e+00 1.915885558277999889e+00 2.001625064229000106e+00 8.069085521523000182e+00 1.933561324433000106e+00 6.040648833491999881e+00 3.979397241595000079e+00 1.943318322150999977e+00 5.962179012083000273e+00 8.155524013748999934e+00 5.951737014250999991e+00 2.098375757104999906e+00 3.899886057745999945e+00 5.992294195107000121e+00 2.093619156053000196e+00 8.050329134946000664e+00 5.945761538849000161e+00 5.991017061444999570e+00 4.029219468854000397e+00 5.890866672820999739e+00 6.147004041846000355e+00 8.060852258068999632e+00
6.392612014399999543e-02 1.191431877500000007e-02 5.879591085599999989e-02 7.959609509262000060e+00 7.890545500394999578e+00 4.203482668734999983e+00 7.791086709247999842e+00 4.004285267696999995e+00 8.171287327319999960e+00 1.305167743070000108e-01 3.832966145578999839e+00 4.080887815328999579e+00 4.021887796485000166e+00 9.002865477999999477e-02 8.102839054672999808e+00 3.997977539873000197e+00 7.944017177639000060e+00 4.111971508883000226e+00 3.826879990419000066e+00 3.992244927294000156e+00 1.792230806999999936e-03 4.086286615568999636e+00 4.086647709162999575e+00 3.980826609038000008e+00 2.041230716868000172e+00 2.005559221552000171e+00 2.089508863484999868e+00 1.990050019089999900e+00 1.961583543394999962e+00 6.160481803847999593e+00 1.918534460120999929e+00 6.046263300525000162e+00 2.128112602234999873e+00 1.962379219552000009e+00 5.928461280189000426e+00 6.207576768684000434e+00 6.070717890597999933e+00 1.917868324999000063e+00 2.147980577587000006e+00 6.050948214743000264e+00 2.013745785154000156e+00 6.228007613656999730e+00 5.983864449970000443e+00 5.960156170762999750e+00 2.085855016218999936e+00 5.988874234397999707e+00 5.914751686135000242e+00 6.158290139631000137e+00 7.961796780232000437e+00 2.010915199529000219e+00 1.994053949935999936e+00 2.317468662900000129e-02 1.926252508991999957e+00 6.098650792132000120e+00 7.907795260572999752e+00 5.917546139315000175e+00 2.074646825377000070e+00 8.016003102100000000e-02 5.950374805161000147e+00 6.108070840184000261e+00 3.992754671315999815e+00 2.006990808973999840e+00 2.073077273790000064e+00 4.030932829781000315e+00 1.977445282291000028e+00 6.077001613428000049e+00 3.946075336793999799e+00 6.067623112899999782e+00 2.080799870954999964e+00 3.973354159157000076e+00 5.920623137177000395e+00 6.037752379414000004e+00 1.962455207080000097e+00 7.762391876999999440e-02 1.908363767570000036e+00 1.928662927351999956e+00 1.214131366400000023e-01 6.085286839097999945e+00 1.998112114643999959e+00 4.086749024915000028e+00 2.038366270806999836e+00 1.995381868279000104e+00 4.009328678382000355e+00 6.048983039168000175e+00 5.999503450271999938e+00 1.031243424899999997e-02 2.013184646881000184e+00 5.937984865513000088e+00 7.900868312999999310e-03 6.011848797418999801e+00 5.956210028006999835e+00 3.976683681218000199e+00 1.885447004686999994e+00 6.038920209272999884e+00 3.972152907468999850e+00 5.919610175679999919e+00 1.962267519744999911e+00 1.967758666818999913e+00 3.935277827149000096e+00 1.907091578828000067e+00 1.991694353556999975e+00 8.076846484261999137e+00 1.895978290681999967e+00 5.981547397527999799e+00 4.014080818138999973e+00 1.959746438533999990e+00 5.963829774210999801e+00 8.123894399762999541e+00 5.975170798867999622e+00 2.103430273135999951e+00 3.898462291966999782e+00 6.013318253725000062e+00 2.115837226775000079e+00 7.991552931009000105e+00 5.961940359953000090e+00 6.067332367661999903e+00 4.012309404867999696e+00 5.859133378223000399e+00 6.088457849082000273e+00 8.059488814525000322e+00