-2.861085532990000138e+04
-2.861001163390000147e+04
-2.860949215230000118e+04
-2.860967792289999852e+04
-2.860979976520000127e+04
-2.860950365379999857e+04
-2.860932814700000017e+04
-2.860932134900000165e+04
-2.860919341419999910e+04
-2.860927035729999989e+04
-2.860946175660000154e+04
-2.860953866220000054e+04
-2.860911357520000092e+04
-2.860881031849999999e+04
-2.860905881289999888e+04
-2.860918633920000138e+04
-2.860869386329999907e+04
-2.860786541020000004e+04
-2.860804088259999844e+04
-2.860816965210000126e+04
-2.860761612949999835e+04
-2.860667240849999871e+04
-2.860690635910000128e+04
-2.860656314570000177e+04
-2.860692438630000106e+04
-2.860678291679999893e+04
-2.860578651059999902e+04
-2.860598645019999822e+04
-2.860699015670000153e+04
-2.860742338970000128e+04
-2.860727813220000098e+04
-2.860746219600000040e+04
-2.860784298249999847e+04
-2.860774311139999918e+04
-2.860840849879999951e+04
-2.860837350040000092e+04
-2.860860818769999969e+04
-2.860827107610000166e+04
-2.860824488009999914e+04
-2.860834893569999986e+04
-2.860886150379999890e+04
-2.860908450649999941e+04
-2.860902700349999941e+04
-2.860908211490000031e+04
-2.860915797849999944e+04
-2.860944793710000158e+04
-2.860951012139999875e+04
-2.860964839040000152e+04
-2.860981060530000104e+04
-2.860987052870000116e+04
-2.861008813319999899e+04
-2.860981521440000142e+04
-2.860970896640000137e+04
-2.860950531860000046e+04
-2.860959032099999968e+04
-2.860956355009999970e+04
-2.860955016039999828e+04
-2.860960165659999984e+04
-2.860937737729999935e+04
-2.860955546429999958e+04
-2.860957850360000157e+04
-2.860966602749999947e+04
-2.860962091090000104e+04
-2.860937220040000102e+04
-2.860903364209999927e+04
-2.860910702500000116e+04
-2.860916334339999958e+04
-2.860850014939999892e+04
-2.860809780029999820e+04
-2.860765999820000070e+04
-2.860763017920000129e+04
-2.860751357629999984e+04
-2.860767299239999920e+04
-2.860767603619999863e+04
-2.860711376229999951e+04
-2.860735374099999899e+04
-2.860746955050000179e+04
-2.860769690840000112e+04
-2.860729536139999982e+04
-2.860672435830000177e+04
-2.860687971269999980e+04
-2.860681382709999889e+04
-2.860712527599999885e+04
-2.860742881539999871e+04
-2.860731304349999846e+04
-2.860700131830000100e+04
-2.860753654660000029e+04
-2.860803079589999834e+04
-2.860772841519999929e+04
-2.860795705129999988e+04
-2.860852663559999928e+04
-2.860886576689999856e+04
-2.860917605280000134e+04
-2.860916194339999856e+04
-2.860896804740000152e+04
-2.860930260730000009e+04
-2.860949039990000165e+04
-2.860925849609999932e+04
-2.860918512439999904e+04
-2.860946766930000013e+04
-2.860958559039999818e+04
-2.860947309020000102e+04
-2.860943952079999872e+04
-2.860965956960000040e+04
-2.860967160240000158e+04
-2.860945758629999909e+04
-2.860959004490000007e+04
-2.860974720499999967e+04
-2.860965905070000008e+04
-2.860972681390000071e+04
-2.860963170410000021e+04
-2.860936405409999861e+04
-2.860949960680000004e+04
-2.860952521210000123e+04
-2.860924998889999915e+04
-2.860883451630000127e+04
-2.860889409389999855e+04
-2.860876180390000081e+04
-2.860849213370000143e+04
-2.860832079190000150e+04
-2.860796083999999973e+04
-2.860833561550000013e+04
-2.860828744640000150e+04
-2.860826336570000058e+04
-2.860843601309999940e+04
-2.860789777419999882e+04
-2.860743430480000097e+04
-2.860736193980000098e+04
-2.860787523449999935e+04
-2.860761830009999903e+04
-2.860709361329999956e+04
-2.860655971700000009e+04
-2.860682270630000130e+04
-2.860685145929999999e+04
-2.860710722090000127e+04
-2.860703270530000009e+04
-2.860688721430000078e+04
-2.860713784500000111e+04
-2.860786052320000090e+04
-2.860876083060000019e+04
-2.860852750229999947e+04
-2.860884227679999822e+04
-2.860900670430000173e+04
-2.860902741830000014e+04
-2.860921030780000001e+04
-2.860900133629999982e+04
-2.860904403340000135e+04
-2.860903777489999993e+04
-2.860910030120000010e+04
-2.860933803329999864e+04
-2.860942400370000178e+04
-2.860932939039999837e+04
-2.860941573979999885e+04
-2.860962698639999871e+04
-2.860965873989999818e+04
-2.860963007609999840e+04
-2.860969520950000151e+04
-2.860974470120000115e+04
-2.860952630629999840e+04
-2.860962752909999836e+04
-2.860957611230000111e+04
-2.860950627149999855e+04
-2.860958408630000122e+04
-2.860965969780000160e+04
-2.860930402390000017e+04
-2.860885962640000071e+04
-2.860879902669999865e+04
-2.860885830720000013e+04
-2.860897670880000078e+04
-2.860847002730000168e+04
-2.860850707150000017e+04
-2.860860345049999887e+04
-2.860861722540000119e+04
-2.860842321100000117e+04
-2.860845644990000073e+04
-2.860817318760000126e+04
-2.860784205949999887e+04
-2.860776331589999972e+04
-2.860738433309999891e+04
-2.860716456839999955e+04
-2.860660326290000012e+04
-2.860695069159999912e+04
-2.860724690180000107e+04
-2.860680627150000146e+04
-2.860692120340000110e+04
-2.860733136190000005e+04
-2.860733767380000063e+04
-2.860767828430000009e+04
-2.860780992269999842e+04
-2.860777518019999843e+04
-2.860818365529999937e+04
-2.860897511179999856e+04
-2.860889153539999825e+04
-2.860863441999999850e+04
-2.860857499810000081e+04
-2.860861034339999969e+04
-2.860881427830000030e+04
-2.860902396909999879e+04
-2.860914890540000124e+04
-2.860923447630000010e+04
-2.860923662519999925e+04
-2.860942795150000165e+04
-2.860938990850000118e+04
-2.860940583250000054e+04
-2.860956063260000155e+04
-2.860958022029999847e+04
-2.860948191320000115e+04
-2.860969298029999845e+04
-2.860953180179999981e+04
-2.860933716859999913e+04
-2.860956397680000009e+04
-2.860961691839999912e+04
-2.860925253969999903e+04
-2.860903737959999853e+04
-2.860940331339999830e+04
-2.860943565060000037e+04
-2.860900337189999846e+04
-2.860906931439999971e+04
-2.860926609829999870e+04
-2.860904228929999954e+04
-2.860889066929999899e+04
-2.860881949220000024e+04
-2.860844824109999900e+04
-2.860823781629999939e+04
-2.860788843210000050e+04
-2.860785349249999854e+04
-2.860799135499999829e+04
-2.860782790530000057e+04
-2.860751957060000132e+04
-2.860739305470000181e+04
-2.860658434620000116e+04
-2.860683268949999911e+04
-2.860719718819999980e+04
-2.860734053770000173e+04
-2.860711391350000122e+04
-2.860733627049999996e+04
-2.860775930819999849e+04
-2.860805331070000102e+04
-2.860787511799999993e+04
-2.860762659889999850e+04
-2.860822079509999821e+04
-2.860832661440000084e+04
-2.860849540079999861e+04
-2.860825443920000180e+04
-2.860801341559999855e+04
-2.860831549900000027e+04
-2.860893992609999987e+04
-2.860891975159999856e+04
-2.860896506210000007e+04
-2.860913972089999879e+04
-2.860947296229999847e+04
-2.860957341610000003e+04
-2.860932815119999941e+04
-2.860930803459999879e+04
-2.860968785109999953e+04
-2.860981838499999867e+04
-2.860956520169999931e+04
-2.860944890500000110e+04
-2.860958043860000180e+04
-2.860956228850000116e+04
-2.860950423589999991e+04
-2.860954551229999925e+04
-2.860941687929999898e+04
-2.860923043709999911e+04
-2.860917509860000064e+04
-2.860949224220000178e+04
-2.860935309570000027e+04
-2.860922161200000119e+04
-2.860919915419999961e+04
-2.860937053369999921e+04
-2.860927279830000043e+04
-2.860883477330000096e+04
-2.860866714649999994e+04
-2.860864769750000050e+04
-2.860837865619999866e+04
-2.860809684140000172e+04
-2.860815162549999877e+04
-2.860779615189999822e+04
-2.860749506670000119e+04
-2.860732408330000180e+04
-2.860744348869999885e+04
