-9.907688531999999174e-03 -1.669189701900000017e-02 -4.386535434999999997e-03 -5.003981332900000328e-02 -7.260754089999999980e-03 -2.628052881000000028e-03 6.880598119000000401e-02 1.372799236200000078e-02 6.869470147600000021e-02 -6.921600407000000343e-02 6.572501399699999525e-02 -3.840290127999999858e-02 1.160620655399999951e-02 -8.882727440599999524e-02 -2.907485759000000020e-03 7.266884479500000660e-02 -1.799478590500000127e-02 3.705509728399999925e-02 2.346659081500000049e-02 5.058900900300000031e-02 1.879895525499999942e-02 2.546008154699999984e-02 9.898233820999999960e-03 3.780051526599999961e-02 -1.509490408889999913e-01 4.524549747300000285e-02 2.103140747770000096e-01 4.351001942200000139e-02 -8.505159089100000624e-02 -3.289763311669999801e-01 -4.775649053999999651e-03 -1.345571217850000112e-01 -1.565052902619999964e-01 -5.726243350500000162e-02 4.736030851100000300e-02 1.541645695680000094e-01 1.309136013459999970e-01 3.240526826400000338e-02 1.221078028750000044e-01 -7.236455633999999693e-02 -1.436071539930000029e-01 -7.797857921999999664e-02 2.855810232899999926e-02 5.741677774600000006e-02 2.426533922090000073e-01 -2.449114710100000133e-02 1.602890381010000087e-01 -2.070602461080000012e-01 4.675877296300000319e-02 -1.097354796029999940e-01 -2.291558842699999848e-02 1.137129428580000018e-01 3.685210871999999860e-02 -7.894772214200000693e-02 1.836176458999999941e-02 -3.032857917300000108e-02 1.190122501499999916e-02 -1.259493004580000131e-01 -6.352943829200000114e-02 8.521993443099999677e-02 -1.128393184420000001e-01 4.434747670800000263e-02 -8.393808422800000391e-02 -2.421851290529999923e-01 -1.173235934200000073e-02 5.392096399600000006e-02 4.271408465300000068e-02 -1.135051871999999970e-03 2.602396963099999974e-02 -9.486551446600000048e-02 -4.569209118900000033e-02 -8.545949319999999322e-03 -3.854412152299999811e-02 -1.115612850000000057e-03 -1.733654736400000104e-02 -5.352346950000000337e-04 1.801013127559999982e-01 -7.954816824600000058e-02 3.882336876200000175e-02 -1.936699346309999903e-01 -3.200260155000000245e-02 9.562575725899999379e-02 -2.493613198469999959e-01 5.888459805099999916e-02 -1.327501278700000086e-02 2.120307095189999935e-01 -9.125273825099999847e-02 4.980093822000000031e-02 4.207349505099999831e-02 9.382355267000000443e-02 -4.791410679999999847e-04 2.744233121200000125e-02 -1.482439207379999957e-01 1.803474716959999891e-01 6.462958131700000108e-02 -5.774403888799999746e-02 -6.144978822199999996e-02 6.381651531199999949e-02 -2.217318942089999967e-01 7.524759205400000095e-02 9.843077257599999741e-02 2.525389814039999958e-01 1.006085984500000065e-02 1.332645250239999912e-01 1.355526041769999912e-01 -6.255307376999999676e-03 6.391817553999999679e-03 -7.377846090400000389e-02 5.485048846099999792e-02 -3.573494882900000308e-02 6.350995715500000471e-02 -2.678761124999999924e-03 -1.117080431999999904e-03 1.928684772220000121e-01 -2.723760024599999885e-02 -1.076269838379999982e-01 -6.240760070200000037e-02 3.400709292700000025e-02 -4.726832704199999957e-02 -6.859463538200000210e-02
-3.186453919300000215e-02 -2.426508444999999833e-02 -9.038405204100000145e-02 -2.474312011300000003e-01 -1.159117657500000065e-02 -1.464912910850000027e-01 4.093030148960000170e-01 -1.299348437599999982e-02 3.003215713430000267e-01 -3.889148193270000053e-01 3.667097001280000268e-01 -3.552618717450000130e-01 2.160339429800000113e-02 -4.397391611690000257e-01 -5.307490054899999948e-02 3.578493565429999856e-01 -9.678605929899999905e-02 6.512513460699999313e-02 1.063111916619999958e-01 2.019217486369999925e-01 6.530712163700000406e-02 1.291971627200000083e-01 2.688140146499999952e-02 1.258838225510000020e-01 -7.821051057860000100e-01 2.321288519390000138e-01 7.463504517540000549e-01 2.426813911990000072e-01 -5.492957107510000325e-01 -1.482891522340000101e+00 -2.213072964700000048e-02 -6.791115757210000048e-01 -6.067146372539999888e-01 -3.327368332689999986e-01 6.291286859960000255e-01 7.000622549680000084e-01 6.886013688900000096e-01 2.006423318070000017e-01 6.441064099259999898e-01 -4.068963964710000103e-01 -7.049008837419999951e-01 -1.858457419740000005e-01 1.300474198129999981e-01 2.536762541900000056e-01 1.229027172536000023e+00 -8.961961227199999325e-02 7.782920626829999966e-01 -9.748866439500000203e-01 3.141367954000000295e-02 -6.640153010749999529e-01 -3.087638076999999967e-02 4.432168784130000039e-01 1.776578222959999953e-01 -3.615971118899999892e-01 1.377170298529999948e-01 -1.410890063099999869e-01 1.589729365130000127e-01 -5.464593610989999517e-01 -3.624823988490000204e-01 5.952668605280000413e-01 -3.861101387249999961e-01 2.362542283480000005e-01 -2.605190033209999756e-01 -1.006110993337000048e+00 -1.534026511980000063e-01 3.518818357480000270e-01 1.882335024859999872e-01 2.261478074500000018e-02 2.369525898229999927e-01 -5.875742558969999640e-01 -2.435730747709999866e-01 4.313195628100000012e-02 -2.058865951090000090e-01 -2.660914994620000029e-01 2.004649546000000088e-02 -5.506974145199999837e-02 7.614971754420000183e-01 -3.778916931440000071e-01 2.093951084590000011e-01 -7.243939261970000487e-01 -8.490257007999999286e-03 5.546749328569999804e-01 -1.361678742497000050e+00 4.016719357169999949e-01 -1.088597726490000001e-01 1.094698451031000053e+00 -4.141493485189999824e-01 2.839375200670000154e-01 2.772842024909999981e-01 6.127437823879999801e-01 6.829393028199999549e-02 2.561383800479999917e-01 -7.571935308499999628e-01 9.862881092309999653e-01 2.589991693740000267e-01 -2.675656487559999741e-01 -4.089012951989999811e-01 4.111719861129999876e-01 -8.931653137620000349e-01 3.949787431339999988e-01 5.369174778130000325e-01 1.065519773943000015e+00 3.574158658200000255e-02 7.270465001150000495e-01 3.803667186190000105e-01 -5.864189340300000192e-02 2.178137543200000040e-02 -4.199553538010000198e-01 3.127880751159999861e-01 -2.235047050199999996e-01 2.649528436740000159e-01 -7.567237430000000112e-03 3.744802962299999954e-02 5.786819921860000271e-01 -1.870094458479999999e-01 -5.918564833320000274e-01 -3.184938618959999856e-01 1.276165711989999951e-01 -2.581196909210000112e-01 -5.809254955489999706e-01
-5.397011000000000257e-06 2.100761811719999983e-01 -1.210354376139999993e-01 -2.849914471519999770e-01 7.713066278400000642e-02 -3.858014942920000023e-01 7.370691580170000146e-01 -2.703441448510000011e-01 3.713380322440000270e-01 -5.785434433399999632e-01 5.861465593279999720e-01 -5.555641087229999941e-01 -5.668440991200000140e-02 -5.197698257539999922e-01 9.061364608100000440e-02 4.378303432810000118e-01 -8.657361259899999661e-02 -1.010556358270000010e-01 1.481847696180000062e-01 9.337430159399999485e-02 8.213933400499999482e-02 1.070258885139999949e-01 -3.897483704899999679e-02 2.521703322539999848e-01 -1.078533153359999996e+00 2.600935084800000130e-01 1.338935684670000126e-01 2.738679207029999785e-01 -2.240804958369999877e-01 -6.719108183840000192e-01 2.907339637800000071e-02 -7.833499358759999920e-01 -3.530241002930000205e-01 -5.041175936959999548e-01 5.796018549989999658e-01 6.287058121819999457e-01 8.836838875579999808e-01 2.455195031550000129e-01 6.664890743250000416e-01 -4.278210197469999865e-01 -8.242970176920000336e-01 1.476333564919999897e-01 1.130618401549999957e-01 2.960260856929999851e-01 1.468367902418000082e+00 -2.355645997199999966e-02 8.116729984149999577e-01 -1.091573146545000039e+00 -3.526928253989999873e-01 -9.226841674719999942e-01 6.047825290799999781e-02 7.924242535999999337e-02 1.348006611839999980e-01 -5.089011432509999988e-01 1.377779697679999971e-01 -1.894793297119999886e-01 2.992958230100000172e-01 -4.767676330930000206e-01 -5.115438674229999538e-01 8.260794323040000497e-01 -4.796779077300000055e-02 3.296975001399999883e-01 -1.144969247699999942e-01 -6.185973066090000305e-01 -2.712073054779999826e-01 3.912168315210000080e-01 2.947595223050000213e-01 2.369481119800000146e-02 3.756642064590000052e-01 -8.425809426210000286e-01 -2.740192030929999856e-01 -1.168774638199999993e-02 -3.217154525290000233e-01 -9.550460622290000146e-01 6.875717471299999661e-02 -1.967534200419999990e-01 2.827589557399999842e-01 -5.836500936320000443e-01 2.356493735119999933e-01 -3.533785212630000117e-01 1.215396543199999957e-01 7.833180221829999512e-01 -1.067998003974000021e+00 5.326519823369999518e-01 -1.657645672309999985e-01 1.035887881335000094e+00 -4.581909344880000234e-01 3.411794503889999941e-01 4.503204266270000034e-01 7.816637370479999625e-01 1.890220186859999929e-01 5.861889968010000063e-01 -9.919831885230000479e-01 1.287787786578000082e+00 9.184106446299999948e-02 -5.061334684620000246e-01 -6.065476491319999885e-01 5.153196576580000299e-01 -5.982233969739999546e-01 4.776739700370000175e-01 6.143035775230000217e-01 3.755020086309999727e-01 -3.387972600900000103e-02 9.358796048170000548e-01 1.852571827010000005e-01 -1.448948079809999900e-01 9.500301311299999552e-02 -3.657106717010000230e-01 3.767917500749999871e-01 -2.553980590850000176e-01 6.300436158679999510e-01 2.469814627700000001e-02 1.645770363150000082e-01 8.868441686899999898e-02 -2.992019327120000183e-01 -6.293015449490000357e-01 -2.601616458670000243e-01 1.039193389249999933e-01 -2.424689081960000048e-01 -8.990814214290000495e-01
-3.920001034000000079e-03 5.033747719740000459e-01 -1.742267363459999996e-01 -1.847388078520000032e-01 1.768423677460000121e-01 -5.627855080570000057e-01 9.379053614250000281e-01 -5.559154160510000331e-01 2.080476459349999974e-01 -6.354643448219999824e-01 7.671857291610000296e-01 -4.314612608799999749e-01 -1.489157725249999897e-01 -4.797731228039999740e-01 3.536402321270000204e-01 3.292876867810000108e-01 2.465127694199999858e-02 -3.495500206680000055e-01 2.865079322579999754e-01 -8.666604933700000624e-02 -6.651591893600000693e-02 -2.975418670099999954e-02 -1.694781513699999964e-01 4.560551591740000243e-01 -8.858403269010000081e-01 -9.288498817599999402e-02 -1.118893951133000053e+00 -1.196477299139999950e-01 1.232933636355000084e+00 6.369966129649999864e-01 1.152728420060000064e-01 -4.027735995489999943e-01 2.897350563680000102e-01 -4.708051543060000066e-01 -2.959457051330000033e-01 6.436649826599999402e-02 6.344247204330000223e-01 2.726390494720000168e-01 4.777113385380000188e-01 5.505925785400000300e-02 -4.915833191330000185e-01 3.811656957230000198e-01 -2.290483720000000109e-04 6.479243601900000482e-02 7.915561705510000268e-01 8.189874578299999319e-02 2.455358175069999871e-01 -6.247866040920000419e-01 -5.010502053330000427e-01 -8.020377499709999691e-01 1.708067533100000035e-01 -3.965789854869999909e-01 -8.597515278400000294e-02 -4.123530000380000171e-01 -1.440001406289999897e-01 -1.799306102509999894e-01 3.467789290759999976e-01 -2.296697083160000041e-01 -4.823008637089999939e-01 6.444826890889999715e-01 2.371711681810000083e-01 2.715210066439999737e-01 2.838697377020000245e-01 4.748265516979999767e-01 -3.277226914770000055e-01 1.610536224730000077e-01 3.620199096560000052e-01 1.957791778900000099e-02 3.960334069359999765e-01 -5.503662101170000431e-01 -1.260039831820000122e-01 -1.719680750339999953e-01 -2.493249172520000112e-01 -1.083814695150000063e+00 7.855452151899999791e-02 -3.426578710739999756e-01 -1.053302582998000059e+00 -6.282392784400000485e-01 2.369197087199999968e-02 3.690164318809999733e-01 2.824118451779999983e-01 6.783580632129999621e-01 3.103270645840000008e-01 3.524136872449999958e-01 -1.155971242360000067e-01 1.511738395549999947e-01 -2.901978581329999751e-01 1.545464945599999973e-01 2.394744085380000054e-01 5.539938842289999776e-01 3.996522754679999734e-01 6.499433977009999586e-01 -7.775673768569999478e-01 9.528593869450000531e-01 -1.237617294099999932e-01 -7.304720040379999446e-01 -5.914298293469999468e-01 2.873955765669999884e-01 2.067315841000000043e-01 2.664049697029999830e-01 2.014517801880000014e-01 -5.714460222549999635e-01 -1.772585568850000015e-01 7.112234016409999526e-01 -4.511964719199999807e-02 -2.179916562910000077e-01 2.069830635229999993e-01 1.605684489199999954e-01 2.490979481230000125e-01 -3.568629646600000177e-02 6.269360849630000176e-01 6.855149271400000355e-02 3.114282014920000119e-01 -4.365335051340000216e-01 -2.893982149670000226e-01 -1.763908565950000062e-01 6.675488393200000592e-02 -2.289798531300000009e-02 3.447638826499999781e-02 -5.985477210840000062e-01
-1.261828861729999973e-01 4.924422948600000183e-01 -3.430227681379999782e-01 -1.928790696200000099e-02 1.603663821759999941e-01 -5.115199516989999973e-01 9.102202023459999847e-01 -5.615147901420000087e-01 -6.642198765000000005e-02 -7.043727459240000099e-01 9.927329873550000405e-01 -7.887035110800000304e-02 -1.675177814330000015e-01 -5.764513925309999731e-01 5.101262817989999920e-01 1.217446009139999952e-01 1.453669830459999868e-01 -4.480027797130000100e-01 6.111261206310000249e-01 -2.664284477500000053e-02 -3.090125550999999748e-01 -1.660154367879999870e-01 -3.221725237199999925e-01 6.779706659799999979e-01 -2.624516016840000021e-01 -4.773819924079999999e-01 -1.649480437495999929e+00 -6.133511177249999502e-01 1.667648991249000012e+00 8.886891099329999877e-01 7.846250918100000638e-02 -3.360396842580000154e-01 7.922216623669999791e-01 -2.413658951869999958e-01 -3.766559502190000019e-01 -4.614140918819999992e-01 -2.454458817669999959e-01 4.222581486579999877e-01 3.876950457130000083e-01 6.097042202760000196e-01 1.968906529929999871e-01 2.463036362250000111e-01 1.078501419499999954e-02 -1.157286775509999976e-01 -4.343248455140000241e-01 1.959201916759999995e-01 -5.829934867270000209e-01 -1.660264775699999973e-01 3.071188009710000277e-01 -3.721300148700000254e-01 1.178059353419999983e-01 -6.315578954299999603e-02 -2.898863006590000069e-01 -7.704799667499999394e-02 -4.438313390260000268e-01 -1.490800881430000002e-01 2.908081727269999917e-01 5.426166828500000178e-02 -2.478121643960000120e-01 5.865952819300000037e-02 -7.856744137000000461e-02 1.439953926960000075e-01 6.022245364470000251e-01 1.052186939242000019e+00 -3.336431004600000083e-01 -1.483801042419999883e-01 2.198570600430000133e-01 3.415288039600000020e-02 3.094452241460000086e-01 1.763464136150000028e-01 -9.782929691999999941e-03 -2.772311059779999920e-01 3.507318697899999838e-02 2.035850321859999923e-01 -4.777516192200000067e-02 -4.256007534440000017e-01 -9.864783670560000051e-01 -3.898247711880000188e-01 -2.567689085539999749e-01 5.680350132100000504e-01 3.126373277039999898e-01 2.303022380579999862e-01 8.263883705829999649e-01 -4.141018280799999701e-02 -9.781453923400000583e-02 -8.308969805779999884e-01 -4.645477719800000099e-02 -1.059140886600000026e-01 -4.407044645040000264e-01 8.652233180599999685e-02 5.102328795339999834e-01 1.031316638889999970e-01 -2.344098444959999972e-01 1.703668389259999916e-01 -8.896586678399999448e-02 -7.698096694360000436e-01 -3.851928257359999996e-01 -7.963227090600000224e-02 5.100068639460000330e-01 -1.573549044320000090e-01 -3.784876203820000118e-01 -6.133075443009999850e-01 -2.797980045069999866e-01 7.238977297300000502e-02 -6.693862830600000313e-02 -2.066662772360000067e-01 1.927321576240000056e-01 8.621430432190000381e-01 4.074426161499999921e-02 2.031594489720000007e-01 -7.959800426999999456e-02 9.817740175799999358e-02 4.226831460809999941e-01 -2.653841442239999737e-01 -1.429985143929999869e-01 4.133355097309999726e-01 7.518025403589999600e-01 -2.429759084650000012e-01 3.217866820829999863e-01 1.206062750099999997e-01
-3.124454119569999855e-01 1.653975125990000128e-01 -5.340941946510000538e-01 1.271296289709999972e-01 6.452364776299999993e-02 -3.975509784669999935e-01 7.804426048920000136e-01 -2.738846908109999756e-01 -2.728568351949999804e-01 -8.332684123950000465e-01 1.242594038468000095e+00 1.740822689260000111e-01 -1.043888296029999996e-01 -8.141789446239999783e-01 5.144164900109999827e-01 -8.865305813200000107e-02 2.325580090699999880e-01 -3.631595728890000263e-01 9.720652895600000454e-01 2.907937727159999874e-01 -4.586409243399999780e-01 -2.615490067180000211e-01 -4.666822578059999782e-01 8.642271589019999700e-01 1.425022455849999925e-01 -5.215633142050000171e-01 -5.527232547410000363e-01 -5.089405504220000376e-01 4.601794447690000234e-01 5.647307928800000126e-02 -1.851822757540000086e-01 -7.862291471010000032e-01 8.402213503150000040e-01 -2.240848592999999944e-02 5.894768010880000464e-01 -1.942290197290000020e-01 -1.276719934326999928e+00 1.834142529829999868e-01 3.383049484919999905e-01 7.203375653129999723e-01 7.438116014150000233e-01 7.480749826999999810e-03 3.692913868780000053e-01 3.565322393550000024e-01 -8.612534619339999864e-01 2.432653053820000022e-01 -1.089112739056000034e+00 -1.278438326209999920e-01 1.265145486883000103e+00 1.754925432630000115e-01 -9.135667528400000237e-02 7.420082778230000509e-01 -3.365947829709999839e-01 3.702049537420000203e-01 -3.902866537060000196e-01 -1.966957602299999885e-02 2.097213503510000077e-01 6.148983858980000550e-01 -1.017045317799999959e-02 -4.967894889530000135e-01 -3.277969047629999966e-01 4.322868413799999671e-02 5.578588736230000178e-01 4.313419343859999922e-01 -3.051263074189999869e-01 -2.896883957809999743e-01 -3.213595187689999855e-01 -2.712271895200000019e-02 1.824504812140000098e-01 6.747147835319999842e-01 -2.907546215799999834e-02 -1.756884294159999915e-01 2.698507480399999769e-01 1.815023833231999895e+00 -2.428048148249999927e-01 -3.087659296709999723e-01 7.075968273620000248e-01 1.423026432429999877e-01 -4.201291809200000116e-01 1.577272992190000001e-01 5.274581771899999882e-02 -2.095541920439999983e-01 1.267381689819999935e-01 -3.080969794069999823e-01 -1.428180961440000118e-01 -8.947903998530000180e-01 1.371694525350000138e-01 -1.941646932099999889e-01 -8.144500700910000113e-01 -3.533782759440000087e-01 3.976861463999999957e-01 -9.425448852379999520e-01 3.344286143119999943e-01 -5.834645028260000421e-01 -1.218535852059999952e-01 -5.116018179289999468e-01 -2.206747877700000054e-02 -2.690610555719999963e-01 -1.051514341169999950e-01 -4.366359883739999725e-01 -6.184364628670000474e-01 -1.174923080960000032e-01 -2.706935988160000250e-01 -6.461761718970000512e-01 6.854957799399999385e-02 -5.289752856899999911e-02 -4.401941302999999583e-03 6.958373351990000399e-01 -1.336194974140000047e-01 2.350929388409999932e-01 -1.023696606479999938e+00 1.112492002149999964e-01 4.406263656339999835e-01 2.956964871259999961e-01 8.774663897999999268e-03 6.582263746840000262e-01 7.730374993330000333e-01 -4.628939244160000244e-01 3.020906107519999995e-01 8.628881686479999980e-01
-4.318382442150000000e-01 -8.086393145499999602e-02 -5.511632420480000460e-01 2.442042719589999911e-01 8.426737883700000098e-02 -4.678474287080000016e-01 7.977305482419999594e-01 -1.789809028500000121e-02 -2.814754722810000054e-01 -8.343185852400000213e-01 1.333606675843000078e+00 1.415695670530000005e-01 -4.945371433000000233e-02 -9.539217911409999529e-01 5.266299935029999935e-01 -2.898652418639999784e-01 3.305437010339999926e-01 -2.591989368889999756e-01 1.145784222617999948e+00 5.257853517299999613e-01 -4.015282982589999938e-01 -3.839024887940000186e-01 -5.954546524470000213e-01 9.242767873280000046e-01 -2.524794237069999947e-01 -7.521770955030000483e-01 8.713141320180000093e-01 -2.623049472289999962e-01 -4.879605625310000083e-01 -9.972340336749999645e-01 -4.945731536840000109e-01 1.503107534000000002e-02 5.695750636719999482e-01 1.699365224840000133e-01 1.477204430331999996e+00 3.462894925960000037e-01 -8.112362476229999508e-01 -2.872867914539999901e-01 7.924307322000000153e-02 4.910304527239999772e-01 5.567817557049999921e-01 9.165855075100000360e-02 6.115240810180000430e-01 6.042791780799999790e-01 -3.563087626329999869e-01 1.675444195169999984e-01 -9.248318413039999797e-01 1.075273908330000028e-01 3.748819440789999957e-01 4.916487269839999730e-01 -2.344351927580000106e-01 7.559795456360000054e-01 -1.950257169830000026e-01 6.687375701069999678e-01 -1.837131186000000001e-03 2.078840131939999891e-01 1.432368054150000014e-01 9.047587527810000418e-01 7.324971572600000314e-02 -6.097622446579999966e-01 2.526278367199999986e-01 -2.736537581699999971e-02 1.313380570630000022e-01 -2.230286832789999951e-01 -1.283808493930000127e-01 -2.764522846990000171e-01 -7.281231684740000487e-01 -2.623101023969999779e-01 7.296393629599999542e-02 5.200319850040000524e-01 -6.028919372600000104e-02 9.597210077300000197e-02 4.409602877730000037e-01 1.097486819355999899e+00 -1.996147975039999911e-01 3.480946048700000323e-02 1.256047726620999949e+00 6.254396461619999847e-01 -3.419174215779999804e-01 1.114994651640000001e-01 -3.332172186169999883e-01 -4.356139889660000097e-01 -4.176653208189999855e-01 -3.558689541080000129e-01 -1.531066562629999905e-01 -9.840441946500000370e-02 2.648004626430000008e-01 -8.996577300000000062e-04 -2.347677266150000053e-01 -6.181554084670000115e-01 2.143107590700000023e-02 -1.171347626705000033e+00 9.075031004610000229e-01 -9.121911380899999644e-01 -3.837067637900000161e-01 1.732708558000000060e-03 3.948878892129999985e-01 -2.409447215770000039e-01 -4.267381334759999811e-01 -3.697682946479999844e-01 -4.082598149159999967e-01 3.287758498050000200e-01 -1.604604495209999981e-01 -1.009361366070999910e+00 1.162895364499999945e-01 1.961334003380000024e-01 -2.050432559910000119e-01 -1.363518224449999927e-01 -1.333380857450000012e-01 7.251496015599999401e-02 -1.282467355034000001e+00 8.193903705699999429e-02 2.159031169670000139e-01 2.345479665300000127e-01 1.002874123890000052e-01 6.376831223519999758e-01 -1.547142203870000010e-01 -4.362264237790000054e-01 -1.481502030380000001e-01 6.931120154090000263e-01
-4.486070591879999792e-01 -4.830745296200000122e-02 -4.252085974579999927e-01 3.052991892099999882e-01 2.428860529769999999e-01 -6.391412132479999952e-01 1.017766321479000036e+00 9.328894541000000776e-03 -8.326826719799999832e-02 -6.200090028929999830e-01 1.205827621435000108e+00 -7.819621165600000590e-02 -6.773641495500000442e-02 -8.493068810080000031e-01 5.964475034020000344e-01 -4.282591627410000101e-01 4.252135528439999757e-01 -2.391312623219999933e-01 1.064098366222000047e+00 4.694033092570000232e-01 -1.732013416269999884e-01 -5.701455865900000308e-01 -6.981124709779999993e-01 7.572235334950000452e-01 -5.863726613559999690e-01 -9.277267497519999795e-01 1.440893529233999937e+00 -9.994149432399999922e-02 -7.408666134369999989e-01 -1.087495738004000012e+00 -2.748047209510000033e-01 5.507610294550000507e-01 2.420441586759999875e-01 3.745137363250000129e-01 1.108239478640000053e+00 4.833868785429999981e-01 -8.430517219199999690e-02 -1.470385375069999945e-01 -6.605079410340000123e-01 -1.195508784600000061e-02 8.212011324000000057e-02 5.015066046520000320e-01 2.301864755839999888e-01 2.250411292950000031e-01 -1.425871271649999938e-01 -1.291649761329999868e-01 -2.538378249969999723e-01 4.373127657270000079e-01 -9.530672193910000312e-01 5.687998791899999684e-01 -2.955573831109999938e-01 -2.462619486740000030e-01 1.264416101120000024e-01 5.677978254279999470e-01 1.567740809569999894e-01 4.886130493920000095e-01 4.532415037399999819e-02 3.403607982390000064e-01 7.194946682599999421e-02 -4.074948994889999732e-01 7.637309603499999877e-01 -4.390275144300000154e-02 -3.446492214069999949e-01 -1.353177496159999882e-01 9.838123154700000039e-02 -2.396972907200000114e-01 -5.346445565690000068e-01 -5.093474182610000511e-01 4.306794420800000300e-02 2.162477222009999978e-01 1.439755461100000050e-02 3.714095022580000127e-01 4.593852827070000200e-01 -5.491396453410000156e-01 3.949847872599999976e-02 4.838359224830000027e-01 3.955948046419999753e-01 7.492214817340000499e-01 -1.687407646909999948e-01 3.298938204640000094e-01 -6.041311947669999460e-01 -4.386357485440000037e-01 7.633021434299999686e-02 -2.413231977979999887e-01 -3.987632687800000270e-02 1.800347507170000083e-01 2.645946541509999750e-01 3.773692986569999741e-01 3.992732279869999901e-01 -6.064128141779999703e-01 -3.109017865450000029e-01 -1.928827102039999963e-01 1.358121609072000080e+00 -7.897294828730000438e-01 -4.498199739250000051e-01 4.913945806630000135e-01 6.381146135790000118e-01 -1.087552287709999954e-01 -1.060606167309999931e-01 3.391091477999999982e-03 1.590862992000000031e-02 2.498793431009999899e-01 -4.896204066300000046e-02 -7.322035610549999518e-01 1.511781757589999997e-01 3.257133696160000036e-01 -1.857593132910000111e-01 -7.534459170780000159e-01 4.086887975700000120e-02 -1.311216100760000114e-01 -1.950256118589999976e-01 3.460513947200000162e-02 -2.421250114490000049e-01 -6.092047520700000218e-01 2.300960498150000089e-01 4.246038009559999771e-01 -7.251670556639999710e-01 -7.491833452000000448e-02 -6.987894679339999859e-01 -1.333950646200000034e-01
-4.063700784270000144e-01 7.437534630400000069e-02 -3.192241097969999997e-01 2.057580956589999954e-01 3.735412747699999869e-01 -6.769968810099999956e-01 1.235870541161000036e+00 -3.596505868799999839e-02 2.064488737799999862e-01 -4.545310602779999987e-01 1.050600322656999985e+00 -2.350553093939999894e-01 -1.231450617810000009e-01 -6.070900288210000495e-01 5.977330303460000049e-01 -3.543348714630000229e-01 4.549566425409999892e-01 -2.289444634099999931e-01 8.190899168180000300e-01 2.622966209600000043e-01 6.151900980799999974e-02 -6.877224849690000141e-01 -7.316897950859999611e-01 5.010709110380000553e-01 -8.791749994599999674e-02 -5.626496889659999834e-01 1.063193127179999919e+00 3.072394184530000127e-01 -2.264893266090000079e-01 -1.831609229260000027e-01 4.524362477130000060e-01 -9.468029670100000517e-02 7.095770693800000639e-02 6.306707499920000126e-01 4.396484922499999809e-02 4.225392028380000053e-01 -1.962846769569999983e-01 3.355237301339999978e-01 -1.647674887745000039e+00 -6.829364423699999520e-01 -3.180626191879999953e-01 4.390952585189999979e-01 -3.760245665520000058e-01 -3.164821707099999687e-02 6.129901784899999956e-02 -6.935925374910000274e-01 4.772673677079999899e-01 3.123581394130000022e-01 -9.268042666479999747e-01 4.336954345740000050e-01 -2.847825035639999780e-01 -1.018724091166000045e+00 4.774022032410000227e-01 9.850575321700000275e-02 1.024353756699999951e-01 6.529744552670000424e-01 -2.466213529029999962e-01 -7.027760401349999464e-01 9.414686332299999905e-02 -1.442058313719999929e-01 1.552574858770000010e-01 -1.762280738699999877e-02 -6.806042298700000215e-01 -2.941304348600000049e-02 2.726802190440000273e-01 -1.643999333060000012e-01 -1.043536346809999932e-01 -4.823538414770000005e-01 -1.053903315860000023e-01 1.962631006970000092e-01 1.763406533949999910e-01 4.417929241529999773e-01 2.368407359130000056e-01 -1.262366741097000089e+00 2.592926345850000147e-01 7.012080474470000491e-01 -9.737499869389999452e-01 3.936845266419999878e-01 -7.741586295999999812e-02 5.937373034300000296e-02 -5.695412955199999905e-01 -2.855444661670000217e-01 5.410332734910000552e-01 -6.448575553999999488e-02 1.041473226310000028e-01 -1.037945719399999966e-01 4.153098113999999924e-02 6.344621134350000302e-01 2.853590471990000155e-01 -2.513634006089999762e-01 -3.762963718230000199e-01 7.849568653130000184e-01 1.123557428852000051e+00 -3.247039747730000037e-01 8.828396299099999789e-02 7.352624003550000120e-01 4.881169472069999959e-01 1.108644495699999920e-02 3.416979098230000234e-01 3.664773898940000274e-01 3.832094667879999972e-01 -1.186952811630000021e-01 1.050414791329999931e-01 -5.943077952300000050e-02 1.473448157870000108e-01 2.219697475899999883e-01 7.159606207200000516e-02 -9.577943876429999559e-01 2.150535391329999879e-01 -2.566631559790000239e-01 1.590338922286999912e+00 -2.772968257300000017e-02 -6.181186099259999844e-01 -8.188283087490000334e-01 3.164526760199999900e-01 -4.850344046300000128e-02 -5.809715419440000250e-01 4.418297842030000089e-01 -9.737858704340000005e-01 -6.304818465020000096e-01