-2.725662085912943233e+00 6.241399716296897732e-05 8.050969065546748071e-02 6.241399716296897732e-05 -2.441071215356050761e+00 -2.668979208242768311e-02 8.050969065546748071e-02 -2.668979208242768311e-02 -3.344806086238194087e+00
-1.983273014432064496e+00 2.302440589117727907e-02 4.656179671102350093e-01 2.302440589117727907e-02 5.978193283379048401e-02 -1.474493585356912995e-01 4.656179671102350093e-01 -1.474493585356912995e-01 -2.626565818804750041e+00
-1.216462231814463335e+00 -1.196902385421385884e-01 6.006119210320564061e-01 -1.196902385421385884e-01 1.897007184876162045e+00 -1.315240046798865081e-01 6.006119210320564061e-01 -1.315240046798865081e-01 -2.782398816286688170e+00
-1.065680684524451666e-01 -4.517662654244884446e-01 4.673118348252291443e-01 -4.517662654244884446e-01 4.090430170725023018e+00 -2.165263244609565429e-01 4.673118348252291443e-01 -2.165263244609565429e-01 -2.050527451784351474e+00
3.106884991676032826e+00 -2.051079295426553317e-01 3.634118051637042490e-01 -2.051079295426553317e-01 8.264933759411874803e+00 -5.080630428573827961e-01 3.634118051637042490e-01 -5.080630428573827961e-01 8.651481809365020315e-01
6.233014699348471410e+00 2.337293428747518886e-01 2.952869301771842703e-01 2.337293428747518886e-01 1.090884083960301076e+01 -1.007337601866156840e+00 2.952869301771842703e-01 -1.007337601866156840e+00 1.001727299562873652e+00
4.392735145306566835e+00 1.890744916125210451e-01 3.727523376263859323e-01 1.890744916125210451e-01 6.531053160344030495e+00 -1.613028274100114956e+00 3.727523376263859323e-01 -1.613028274100114956e+00 -4.011764109268787237e+00
-2.181287877257019059e-01 4.021294633579879790e-02 8.198171854877979170e-01 4.021294633579879790e-02 -1.048899583675401370e+00 -1.776198757925792737e+00 8.198171854877979170e-01 -1.776198757925792737e+00 -9.091592714972803080e+00
-3.092589247597259838e+00 -4.288014381675005204e-02 1.126086086742529746e+00 -4.288014381675005204e-02 -4.757386819262401367e+00 -1.315487163309275509e+00 1.126086086742529746e+00 -1.315487163309275509e+00 -9.446800758963961542e+00
-4.186455560084435312e+00 -1.180394338076609928e-01 1.045106371303823334e+00 -1.180394338076609928e-01 -5.722527999206707072e+00 -1.024734024590114645e+00 1.045106371303823334e+00 -1.024734024590114645e+00 -8.002859474477013180e+00
-4.805296828129305808e+00 -1.667312915336525980e-01 4.795556148310972655e-01 -1.667312915336525980e-01 -6.066827291077665940e+00 -1.041354411924267476e+00 4.795556148310972655e-01 -1.041354411924267476e+00 -6.503438066528400618e+00
-4.455432450354907203e+00 -8.551433243282634267e-02 -1.109145477473187369e-01 -8.551433243282634267e-02 -4.679885700417548478e+00 -1.329067557134200994e+00 -1.109145477473187369e-01 -1.329067557134200994e+00 -4.618690579736928647e+00
-3.548827277743398678e+00 -2.310053622735661338e-01 -2.865530770156483054e-01 -2.310053622735661338e-01 -1.386808256170951825e+00 -1.540625937366843834e+00 -2.865530770156483054e-01 -1.540625937366843834e+00 -1.789498138518751169e+00
-4.479964145621729621e+00 -7.490668541709378792e-01 2.267989526883271711e-01 -7.490668541709378792e-01 2.750153306899711936e+00 -1.268664992483667486e+00 2.267989526883271711e-01 -1.268664992483667486e+00 -3.096036167981044418e+00
-5.108564526316373033e+00 -6.163129023651832128e-01 9.974586213357001796e-01 -6.163129023651832128e-01 4.060367967104105524e+00 -9.198099688338583213e-02 9.974586213357001796e-01 -9.198099688338583213e-02 -7.072495230063042371e+00
-2.748582204563464249e+00 -5.827233606096251378e-02 1.368682021782832381e+00 -5.827233606096251378e-02 2.914580736474337019e+00 8.976016580469783346e-01 1.368682021782832381e+00 8.976016580469783346e-01 -8.188613420480264082e+00
1.401559867157445405e+00 -2.905382807309550008e-01 1.421132721255141229e+00 -2.905382807309550008e-01 3.152250746014489735e+00 8.965868048376508526e-01 1.421132721255141229e+00 8.965868048376508526e-01 -5.283346330253834822e+00
7.092551539140607098e+00 -5.023683160737353326e-01 7.926597244030253453e-01 -5.023683160737353326e-01 5.452174480601212458e+00 7.368831374806952828e-02 7.926597244030253453e-01 7.368831374806952828e-02 -7.486743204360584159e-01
7.565123561502402616e+00 -1.019156479627826295e-01 -1.330138154842138709e-01 -1.019156479627826295e-01 8.942955957001581524e+00 -7.767180296797360217e-01 -1.330138154842138709e-01 -7.767180296797360217e-01 -2.644852146808407065e-02
5.673476990805226272e+00 5.270099397260959995e-01 -6.659174655287748434e-01 5.270099397260959995e-01 1.429541846102655356e+01 -7.392539125215805695e-01 -6.659174655287748434e-01 -7.392539125215805695e-01 -2.647569352665174680e+00
4.852457229973788699e+00 2.279941284929613010e-01 -8.386216983781208389e-01 2.279941284929613010e-01 1.230335601762593178e+01 -2.563818954692680951e-01 -8.386216983781208389e-01 -2.563818954692680951e-01 -5.121650459632966168e+00
2.824554364268539342e+00 -1.112028670739202862e+00 -5.112211766284029402e-01 -1.112028670739202862e+00 7.418752173394496552e+00 1.191273115374994696e+00 -5.112211766284029402e-01 1.191273115374994696e+00 -5.852574934810806262e+00
1.831825599403407612e+00 -2.140503897773623265e+00 -2.192619370892573416e-01 -2.140503897773623265e+00 -9.596942466128549620e-02 1.880802793025048603e+00 -2.192619370892573416e-01 1.880802793025048603e+00 -5.351585013357863296e+00
2.883377474147619246e+00 -2.036197425461481192e+00 -3.671266213208035367e-01 -2.036197425461481192e+00 3.438506926632967087e+00 -2.102370644891514151e-01 -3.671266213208035367e-01 -2.102370644891514151e-01 -1.153723934903957415e+00
-2.422886034450955073e+00 -2.021768163295224241e+00 -5.889223076285522440e-01 -2.021768163295224241e+00 7.058245050035342416e+00 -6.439898530248203690e-01 -5.889223076285522440e-01 -6.439898530248203690e-01 -9.519161636504728463e+00
-1.052185669663144729e+01 -1.748302110166573220e+00 -6.762425638525905169e-01 -1.748302110166573220e+00 -1.559041914222065062e+00 -2.171658062757407526e-01 -6.762425638525905169e-01 -2.171658062757407526e-01 -2.077309041012545876e+01
-1.555620778912271795e+01 -1.414447895183365667e+00 -4.070182569851140686e-01 -1.414447895183365667e+00 -1.250962710178815129e+01 -2.574175412133931085e-01 -4.070182569851140686e-01 -2.574175412133931085e-01 -2.521561996401631944e+01
-1.893166090310339200e+01 -1.137839698556783574e+00 -1.902650952092369840e-01 -1.137839698556783574e+00 -1.784034129734457252e+01 1.989318242292220373e-01 -1.902650952092369840e-01 1.989318242292220373e-01 -2.798160678812727653e+01
-1.723384793094177780e+01 -1.024784220228801335e+00 -8.856861495597020406e-01 -1.024784220228801335e+00 -1.667660857906352945e+01 -5.176155828556308069e-01 -8.856861495597020406e-01 -5.176155828556308069e-01 -2.652639447291982933e+01
-7.903900519453791240e+00 -7.243830873924222979e-01 -2.073022653492547107e+00 -7.243830873924222979e-01 -8.454744749544358839e+00 -1.674520337169543849e+00 -2.073022653492547107e+00 -1.674520337169543849e+00 -1.720199943889284100e+01
6.240769146119022892e+00 -3.454083349376985690e-01 -1.945693083410170665e+00 -3.454083349376985690e-01 2.551626122155178589e+00 -1.691934628942941332e+00 -1.945693083410170665e+00 -1.691934628942941332e+00 -4.452536234631238266e+00
1.135241559027278591e+01 -3.173914248104854341e-01 -6.938420700300496069e-01 -3.173914248104854341e-01 2.373021867135421292e+00 -1.870127605406594284e+00 -6.938420700300496069e-01 -1.870127605406594284e+00 3.650693604310917273e+00
5.904938836290117621e+00 -1.071156281549656475e+00 1.579274847663987291e-01 -1.071156281549656475e+00 1.547380633908065960e-04 -2.652153217538635754e+00 1.579274847663987291e-01 -2.652153217538635754e+00 -1.091393571019261710e+00
4.416525066876507033e+00 -1.362566103237166537e+00 7.474007657029305696e-01 -1.362566103237166537e+00 2.230221168053553527e+00 -2.631520300752979047e+00 7.474007657029305696e-01 -2.631520300752979047e+00 -3.467964342064584482e+00
6.542053154557377681e+00 -1.204036574662701753e+00 2.715408265536717880e-01 -1.204036574662701753e+00 5.662872181907671276e+00 -2.512524921569242231e+00 2.715408265536717880e-01 -2.512524921569242231e+00 -1.693810002985612018e+00
1.144317942561180601e+01 -3.854239800507586189e-01 -1.382139854297187442e-02 -3.854239800507586189e-01 1.169072180931229354e+01 -1.798176426483041546e+00 -1.382139854297187442e-02 -1.798176426483041546e+00 9.394844006627892652e-01
1.049133623366154033e+01 4.694387123861604172e-01 2.929588397860265481e-01 4.694387123861604172e-01 1.224370839040541448e+01 -4.188016700837138839e-01 2.929588397860265481e-01 -4.188016700837138839e-01 -1.023091935514445439e+00
9.602092773686095484e+00 9.220334261951264043e-01 7.638411576701780170e-01 9.220334261951264043e-01 9.378011885007836668e+00 6.439832001681363716e-01 7.638411576701780170e-01 6.439832001681363716e-01 -4.112211532477480169e+00
6.916934778620682955e+00 7.776157883410319549e-01 6.737782440880857315e-01 7.776157883410319549e-01 4.710832208335337334e+00 5.512323936236753763e-01 6.737782440880857315e-01 5.512323936236753763e-01 -8.012648417120511013e+00
3.784952434667469667e+00 5.732921360087757101e-01 2.746327923696450513e-01 5.732921360087757101e-01 6.129054526599336805e-01 3.370886936978117476e-01 2.746327923696450513e-01 3.370886936978117476e-01 -1.034807889843787976e+01
4.477006179584691603e-01 2.084787372318985116e-02 2.131114345592272086e-01 2.084787372318985116e-02 -2.736452833987310651e-01 6.149927363476895836e-01 2.131114345592272086e-01 6.149927363476895836e-01 -1.196529015938303253e+01
1.023272048026125036e+00 -9.045369969509657881e-01 -1.925787831869544831e-01 -9.045369969509657881e-01 6.268306933797037628e-01 7.390124410051114312e-01 -1.925787831869544831e-01 7.390124410051114312e-01 -1.274704646912939410e+01
1.093210717071355420e+00 -1.126482830884859565e+00 -4.759937974830044660e-01 -1.126482830884859565e+00 1.464177272722454459e+00 3.169465515530754951e-01 -4.759937974830044660e-01 3.169465515530754951e-01 -1.304244245525186763e+01
-8.268539347425859498e-01 -7.394679580533108920e-01 -1.477551506975973705e-01 -7.394679580533108920e-01 -1.096246544330217315e-01 -3.639982321101822849e-01 -1.477551506975973705e-01 -3.639982321101822849e-01 -1.207515569337033412e+01
-3.138822811269027735e+00 -4.455722280539466951e-01 1.731036509782756805e-01 -4.455722280539466951e-01 -2.135719778785608369e+00 -8.078797757716629224e-01 1.731036509782756805e-01 -8.078797757716629224e-01 -8.646564626881707127e+00
-5.444284807612127963e+00 -1.690309593989237080e-01 2.131950900104672142e-01 -1.690309593989237080e-01 -4.916569123684412901e+00 -6.179330522208467125e-01 2.131950900104672142e-01 -6.179330522208467125e-01 -4.145970760885717254e+00
-5.023464200740549224e+00 5.870189855361955533e-02 -1.571658656519960354e-02 5.870189855361955533e-02 -4.877209938675747480e+00 -4.941588556372314422e-01 -1.571658656519960354e-02 -4.941588556372314422e-01 -3.466360406216784096e+00
-4.242013233912462766e+00 1.115005888300725223e-01 -2.614339325285867655e-01 1.115005888300725223e-01 -2.247380663613589569e+00 -7.573360061947042032e-01 -2.614339325285867655e-01 -7.573360061947042032e-01 -6.549514996864546745e+00
-2.557802752589935391e+00 9.385707084084536633e-02 -5.772840070914021099e-02 9.385707084084536633e-02 4.172254292619603788e-01 -7.786461150823236199e-01 -5.772840070914021099e-02 -7.786461150823236199e-01 -9.206880861986274311e+00
-8.944753861162365594e-01 6.545121968071750118e-02 1.558912133424214530e-01 6.545121968071750118e-02 2.933800031175179956e+00 -4.244719070051625187e-01 1.558912133424214530e-01 -4.244719070051625187e-01 -9.253627146438489603e+00
2.522444362743069268e-01 -6.959078966799547850e-02 -5.699091301221521216e-02 -6.959078966799547850e-02 4.492491341122570425e+00 2.573908064705924745e-02 -5.699091301221521216e-02 2.573908064705924745e-02 -7.736537037046464782e+00
2.476358353199108464e+00 -1.601517624704314885e-02 -1.907519607382334170e-01 -1.601517624704314885e-02 8.024643616845146710e+00 3.234915094369895106e-01 -1.907519607382334170e-01 3.234915094369895106e-01 -4.794253380649228014e+00
4.014519184477379099e+00 2.508808673430252753e-02 -2.883316222850879074e-01 2.508808673430252753e-02 1.103123098918464073e+01 4.484780928622349450e-01 -2.883316222850879074e-01 4.484780928622349450e-01 -2.688312161985231263e+00
6.636883254515953290e+00 -2.138442779945000372e-01 -4.755967528718199056e-01 -2.138442779945000372e-01 1.214324857189674667e+01 4.886622247894867321e-01 -4.755967528718199056e-01 4.886622247894867321e-01 1.509785508099119600e-01
9.981485710782033394e+00 -4.857313917487988686e-01 -4.798115764343341416e-01 -4.857313917487988686e-01 1.034682097369261911e+01 5.876931101371442034e-01 -4.798115764343341416e-01 5.876931101371442034e-01 2.742603186611592553e-02
1.035702762105732155e+01 -6.897091205192026342e-01 -6.458321642070344870e-01 -6.897091205192026342e-01 7.426391309721897649e+00 4.584303480247741147e-01 -6.458321642070344870e-01 4.584303480247741147e-01 -1.262955965411535431e+00
6.635036588619887432e+00 -4.379953059226316392e-01 -1.033479894732203475e+00 -4.379953059226316392e-01 5.490120910993044667e+00 3.485500997713597560e-01 -1.033479894732203475e+00 3.485500997713597560e-01 -4.209495188083492323e+00
2.160887182119630268e+00 -2.004336556055366092e-01 -9.572419477434548352e-01 -2.004336556055366092e-01 5.186903069993959114e+00 1.605925461656010356e-01 -9.572419477434548352e-01 1.605925461656010356e-01 -6.078962455866240511e+00
-1.730954995637291827e+00 -1.323157046870661324e-01 -7.020309462678879786e-01 -1.323157046870661324e-01 8.289289682937615922e+00 -2.001277739514119580e-01 -7.020309462678879786e-01 -2.001277739514119580e-01 -6.065382321892460737e+00
-5.741501879772436645e+00 -4.005381360148896341e-02 -6.317629547660753575e-01 -4.005381360148896341e-02 6.990521407479967309e+00 -4.680999961307785173e-01 -6.317629547660753575e-01 -4.680999961307785173e-01 -6.328687426217479484e+00
-8.035628962029575106e+00 -1.445644458769958750e-02 -5.576479970007864884e-01 -1.445644458769958750e-02 3.474346208821072590e+00 -5.615628021896461597e-01 -5.576479970007864884e-01 -5.615628021896461597e-01 -6.951862666107373023e+00
-9.601848409228823655e+00 1.594237459163995452e-01 -4.896987429283811144e-01 1.594237459163995452e-01 -1.775195454806345774e+00 -7.430398997570109021e-01 -4.896987429283811144e-01 -7.430398997570109021e-01 -8.215946720625863620e+00
-9.568536012301198213e+00 1.252189619279591715e-01 -4.631389922772207179e-01 1.252189619279591715e-01 -9.790553398685309716e+00 -6.442397440122631380e-01 -4.631389922772207179e-01 -6.442397440122631380e-01 -8.353880539881918921e+00
-8.356167608975059835e+00 -1.526205450147270770e-01 -3.741232561571491977e-01 -1.526205450147270770e-01 -1.167527051942893657e+01 -3.839713976644007487e-01 -3.741232561571491977e-01 -3.839713976644007487e-01 -7.623083108600398283e+00
-5.618917351705668750e+00 -2.965025729941330179e-01 -1.846319286922514791e-01 -2.965025729941330179e-01 -8.997583928683702936e+00 -7.063137240678373230e-01 -1.846319286922514791e-01 -7.063137240678373230e-01 -4.980058456285447299e+00
-3.718818257173623465e+00 -1.492850178256432681e-01 -6.171360656151299307e-02 -1.492850178256432681e-01 -6.485953429513191537e+00 -6.269592969580015662e-01 -6.171360656151299307e-02 -6.269592969580015662e-01 -7.338725929357524436e+00
-3.542371141620129560e+00 2.778710005891031343e-01 -4.858891141994579610e-01 2.778710005891031343e-01 -1.147654049123532749e+00 -4.245665456923523040e-01 -4.858891141994579610e-01 -4.245665456923523040e-01 -9.999044950014100763e+00
-7.404100060745405498e-01 5.063735577696147905e-01 -1.141513761111336400e+00 5.063735577696147905e-01 7.833406861759693030e+00 -6.265131283280899188e-01 -1.141513761111336400e+00 -6.265131283280899188e-01 -5.660069457623636779e+00
2.253656607248103239e+00 9.460385800652795218e-01 -1.595039282823601967e+00 9.460385800652795218e-01 1.738130048104348901e+01 -6.409386190437716957e-01 -1.595039282823601967e+00 -6.409386190437716957e-01 -2.265908010379737547e+00
4.193135217832964834e+00 9.836308380958924680e-01 -1.262367366134965474e+00 9.836308380958924680e-01 2.107258795216420211e+01 -4.789510541699401047e-01 -1.262367366134965474e+00 -4.789510541699401047e-01 -1.632818088054025507e+00
3.599712830943908148e+00 7.173512954544741804e-01 -3.697508127755846918e-01 7.173512954544741804e-01 1.247356855507045736e+01 -2.636275238330179627e-01 -3.697508127755846918e-01 -2.636275238330179627e-01 -2.663928402820805452e+00
3.504338692204970407e+00 1.747290750963124972e-01 -9.644053129993637730e-02 1.747290750963124972e-01 6.741515615483764989e+00 2.508633568507822112e-02 -9.644053129993637730e-02 2.508633568507822112e-02 -4.347315375456493491e+00
2.701549493252805245e+00 -1.496804947875533531e-01 -4.272545108721592100e-01 -1.496804947875533531e-01 3.689932547418851794e+00 -1.546255301494145751e-01 -4.272545108721592100e-01 -1.546255301494145751e-01 -1.392013839478684067e+00
3.724465161625105103e-01 -4.504603279087884826e-01 -3.424936989330008563e-01 -4.504603279087884826e-01 3.457764969851104819e+00 -3.503372537466025172e-01 -3.424936989330008563e-01 -3.503372537466025172e-01 2.815662832832627860e+00
-1.630421746011109674e+00 -4.296076854506445941e-01 -1.212327536655660176e-01 -4.296076854506445941e-01 5.042906967445786037e+00 -5.698763833473734497e-01 -1.212327536655660176e-01 -5.698763833473734497e-01 2.183983824127680773e+00
-5.208247802896358358e+00 -6.766212155638114123e-02 -3.384098338182348620e-01 -6.766212155638114123e-02 4.220350776834650652e+00 -4.532775978022842156e-01 -3.384098338182348620e-01 -4.532775978022842156e-01 -3.404262559834210222e+00
-3.829498894315071400e+00 -5.945734260798900966e-03 -4.660159414575398285e-01 -5.945734260798900966e-03 8.714682445141255229e-01 -3.270749502967758571e-01 -4.660159414575398285e-01 -3.270749502967758571e-01 -7.204985716489060721e+00
-4.231165087902752475e+00 -2.428052328965577822e-01 -3.674061353805940233e-01 -2.428052328965577822e-01 -5.001732892127548347e+00 -2.135734190423616563e-01 -3.674061353805940233e-01 -2.135734190423616563e-01 -1.163623118693691438e+01
-8.031397039647837133e+00 6.813475067933320029e-01 4.859026799273034602e-01 6.813475067933320029e-01 -9.690570858525504150e+00 -5.435904160595069756e-01 4.859026799273034602e-01 -5.435904160595069756e-01 -1.766231213293375646e+01
-1.070143446347053384e+01 1.150679859086100931e+00 8.709009927292743480e-01 1.150679859086100931e+00 -1.085918820376429927e+01 -1.634452158054561677e+00 8.709009927292743480e-01 -1.634452158054561677e+00 -1.980229711414960647e+01
-9.500532201455989423e+00 1.142915485167615985e+00 6.427939922433557607e-01 1.142915485167615985e+00 -8.331180254604991120e+00 -2.543969643083915599e+00 6.427939922433557607e-01 -2.543969643083915599e+00 -1.488797664380686037e+01
-4.381435731543930068e+00 1.191121310809005740e+00 2.140721379626484011e-01 1.191121310809005740e+00 -2.374782977491000757e+00 -2.899615284648233260e+00 2.140721379626484011e-01 -2.899615284648233260e+00 -8.664082090383118384e+00
-3.769428114143508868e+00 7.963175819816088463e-01 2.234990978505834933e-02 7.963175819816088463e-01 -1.588115711978784761e+00 -2.440221652115219353e+00 2.234990978505834933e-02 -2.440221652115219353e+00 -6.644676112900257614e+00
-4.945713773290919768e+00 4.323821131053949274e-01 4.780951522550154209e-01 4.323821131053949274e-01 -1.452240881268883621e+00 -8.646189366370281570e-01 4.780951522550154209e-01 -8.646189366370281570e-01 -1.213627734474841624e+01
-4.566551438541552876e+00 -4.323526123708966717e-01 1.151661109830345170e-01 -4.323526123708966717e-01 -9.644467218168391032e-01 2.581525268688995012e-01 1.151661109830345170e-01 2.581525268688995012e-01 -1.497785468768301875e+01
-8.842989039469130175e-01 -8.864154640124890516e-01 -8.637691454924543155e-01 -8.864154640124890516e-01 2.057462013251923683e+00 3.417552308959972418e-01 -8.637691454924543155e-01 3.417552308959972418e-01 -1.121934208584512405e+01
4.790707544487495362e+00 -4.175673813883286623e-01 -1.382898261098558068e+00 -4.175673813883286623e-01 6.662528825801056875e+00 -5.320366870040736940e-01 -1.382898261098558068e+00 -5.320366870040736940e-01 -7.561610574145495534e+00
8.129674778859358852e+00 3.714721900893626083e-01 -1.405312166867410895e+00 3.714721900893626083e-01 9.927262711324789990e+00 -1.306565960679116234e+00 -1.405312166867410895e+00 -1.306565960679116234e+00 1.871236639618050424e+00
1.092703008651015395e+01 1.432511979708808614e+00 -9.882773193203818751e-01 1.432511979708808614e+00 1.017969915661032232e+01 -1.512217470432767996e+00 -9.882773193203818751e-01 -1.512217470432767996e+00 1.130513028595494873e+01
9.336089549749816641e+00 1.594504650516145094e+00 -6.896102761939759684e-01 1.594504650516145094e+00 6.834556609819643747e+00 -1.546481763492383754e+00 -6.896102761939759684e-01 -1.546481763492383754e+00 7.462145344210679987e+00
3.811603662296800366e+00 8.167496583616903338e-01 -1.009123409683877037e+00 8.167496583616903338e-01 3.478137795830442247e+00 -9.757670235453036467e-01 -1.009123409683877037e+00 -9.757670235453036467e-01 -1.625302725940589443e+00
1.461046961974239000e+00 3.284898691942676474e-01 -8.194936123864244859e-01 3.284898691942676474e-01 1.781541049883557992e+00 -3.743321693545643147e-01 -8.194936123864244859e-01 -3.743321693545643147e-01 -7.885741071476894071e+00
-1.333486644790679243e+00 2.865872316683171772e-01 -8.042826182122083355e-04 2.865872316683171772e-01 2.533018641025335249e+00 -6.396616574021614099e-01 -8.042826182122083355e-04 -6.396616574021614099e-01 -9.596160863535361685e+00
-2.670640530010413460e+00 1.995923198707877100e-01 1.650329290431382934e-01 1.995923198707877100e-01 3.668275867234019660e+00 -1.122224042817691725e+00 1.650329290431382934e-01 -1.122224042817691725e+00 -6.809937379859693607e+00
-2.932863155668609334e+00 7.553750690588675876e-02 -1.307430575066327594e-01 7.553750690588675876e-02 2.931136359288841309e+00 -9.978226507155851799e-01 -1.307430575066327594e-01 -9.978226507155851799e-01 -4.515124375283070535e+00
-6.707230187630456086e+00 1.287852025635773945e-01 1.180737245317928577e-02 1.287852025635773945e-01 2.134469432850366888e-01 -8.744633964267698456e-01 1.180737245317928577e-02 -8.744633964267698456e-01 -8.400980130383755906e+00
-1.036717934265196384e+01 1.604368489095001349e-01 3.494310408419543101e-01 1.604368489095001349e-01 -1.536797798578467322e+00 -5.417501141188523217e-01 3.494310408419543101e-01 -5.417501141188523217e-01 -1.414704730935323518e+01
-1.103199509423132163e+01 -2.616605062799390400e-03 7.402458039862205297e-01 -2.616605062799390400e-03 -8.745885849418573166e-01 -6.476501676334869145e-03 7.402458039862205297e-01 -6.476501676334869145e-03 -1.630041553606503513e+01
-8.883572751903724196e+00 -2.255961090080244036e-01 8.080077738701600953e-01 -2.255961090080244036e-01 2.092846744194457043e-01 2.674993738225448503e-01 8.080077738701600953e-01 2.674993738225448503e-01 -1.509268587966590225e+01
-5.022139158312276308e+00 -4.278405754143695949e-01 7.492717078228088301e-01 -4.278405754143695949e-01 1.076968071550545192e+00 7.664033723457669423e-02 7.492717078228088301e-01 7.664033723457669423e-02 -1.272810052734878106e+01
-2.493300056062050518e-01 -4.006323686835369102e-01 2.980315786210219198e-01 -4.006323686835369102e-01 2.750251025125773019e+00 7.123693161684879760e-02 2.980315786210219198e-01 7.123693161684879760e-02 -8.053243762690085461e+00
5.769086488197296525e+00 -1.837574142547267197e-01 -2.843938052734281685e-01 -1.837574142547267197e-01 4.741662602604360899e+00 -2.992460046262677281e-02 -2.843938052734281685e-01 -2.992460046262677281e-02 -3.387921224410251231e+00
9.588080284811722365e+00 3.638942945584981020e-02 -2.944813531955557395e-01 3.638942945584981020e-02 6.241167040556944379e+00 -4.527901251979130626e-01 -2.944813531955557395e-01 -4.527901251979130626e-01 -1.190956886459083153e+00
7.586549211314080665e+00 3.206240441604765734e-01 7.551762823305550876e-02 3.206240441604765734e-01 6.181761148424396168e+00 -4.550093531433614391e-01 7.551762823305550876e-02 -4.550093531433614391e-01 -5.968272344613789748e-01
6.372104640150452859e+00 4.174034767965469905e-01 8.459747442471605983e-02 4.174034767965469905e-01 6.503056937126667769e+00 -9.247908046476456534e-02 8.459747442471605983e-02 -9.247908046476456534e-02 -2.963167836580553605e-01
7.518390864523577299e+00 4.314377820348666015e-01 -1.360152422487728718e-01 4.314377820348666015e-01 8.411570493195782205e+00 3.172159231736914609e-01 -1.360152422487728718e-01 3.172159231736914609e-01 2.185359617026722212e+00
9.074382292288628804e+00 4.388694611677614321e-01 -8.321336378482101920e-03 4.388694611677614321e-01 8.007519883933294835e+00 4.675003573127005652e-01 -8.321336378482101920e-03 4.675003573127005652e-01 9.305157480379930846e-01
7.866131973308836400e+00 2.681832867817882660e-01 1.258290155900577967e-01 2.681832867817882660e-01 6.065317961496626609e+00 3.731242521510989563e-01 1.258290155900577967e-01 3.731242521510989563e-01 -3.620123790326184032e+00
4.587368101136154230e+00 2.234674119880658005e-01 -1.778771794413854523e-01 2.234674119880658005e-01 5.222795304330775323e+00 4.555858551391915867e-01 -1.778771794413854523e-01 4.555858551391915867e-01 -6.921321628667521431e+00
1.220121442862812433e+00 3.985547674694676634e-01 -8.053239231605419102e-01 3.985547674694676634e-01 3.120098097785006797e+00 5.643767824294420032e-01 -8.053239231605419102e-01 5.643767824294420032e-01 -8.921182356732884955e+00
-1.061660208854459775e+00 1.376453835372661028e-01 -1.207210618962673010e+00 1.376453835372661028e-01 6.576565190587067011e-01 7.800827803252218251e-01 -1.207210618962673010e+00 7.800827803252218251e-01 -8.972481754854060298e+00
-1.015607490187968143e+00 -4.258402066248405671e-01 -1.160255822949325388e+00 -4.258402066248405671e-01 -1.678859665749126595e+00 1.256035806892397799e+00 -1.160255822949325388e+00 1.256035806892397799e+00 -8.658670199183490013e+00
3.127113212520129387e-02 -5.139564821769831982e-01 -9.363652255870992258e-01 -5.139564821769831982e-01 -4.719530393305871208e+00 1.548677227399579470e+00 -9.363652255870992258e-01 1.548677227399579470e+00 -1.039603948701003233e+01
9.393956871474265502e-02 -3.106628732951065563e-01 -4.772854666629992026e-01 -3.106628732951065563e-01 -6.664840665993795987e+00 8.079167225027260590e-01 -4.772854666629992026e-01 8.079167225027260590e-01 -1.198634579868337369e+01
-3.075187835474367137e+00 -3.756953760015421806e-01 4.456028408382696482e-03 -3.756953760015421806e-01 -6.090412413862167362e+00 -3.573683992384998898e-01 4.456028408382696482e-03 -3.573683992384998898e-01 -1.281386309114418509e+01
-4.349559374653929389e+00 -6.833147309651675938e-01 3.562743601071622357e-01 -6.833147309651675938e-01 -3.771132393810761041e+00 -9.390322189311409717e-01 3.562743601071622357e-01 -9.390322189311409717e-01 -1.261222588179267845e+01
-2.976850407389022735e+00 -5.607192872813344664e-01 -2.489354753047930136e-01 -5.607192872813344664e-01 -1.895544587711047502e+00 -1.173450824255983571e+00 -2.489354753047930136e-01 -1.173450824255983571e+00 -9.818866349583428743e+00
-1.293252817219668616e-02 -9.203578525138922384e-02 -1.239058951779328677e+00 -9.203578525138922384e-02 1.053004527487328756e+00 -1.326396547243194890e+00 -1.239058951779328677e+00 -1.326396547243194890e+00 -2.947620184254937659e+00
3.948964205593993082e+00 4.459350088417285973e-01 -1.849966354978394456e+00 4.459350088417285973e-01 3.755230682312793444e+00 -8.725113668334530947e-01 -1.849966354978394456e+00 -8.725113668334530947e-01 1.331023084190255945e-01
5.502805487375595384e+00 3.710405549821068488e-02 -2.337766351139385801e+00 3.710405549821068488e-02 4.355359981903656141e+00 -5.074601173634255558e-01 -2.337766351139385801e+00 -5.074601173634255558e-01 -1.432152404786215305e+00
3.763989326890566200e+00 -1.416855073753166272e-01 -2.256307145516627699e+00 -1.416855073753166272e-01 5.876534965333278571e+00 -8.858018079309220028e-01 -2.256307145516627699e+00 -8.858018079309220028e-01 -4.936860486427772976e+00
4.111762096056605920e+00 4.400229263092034909e-02 -1.169050849670117076e+00 4.400229263092034909e-02 2.757449229132329371e+00 -1.303347422850691828e+00 -1.169050849670117076e+00 -1.303347422850691828e+00 -8.674984194701586659e+00
8.887173679331457521e+00 -9.535350104920101155e-02 1.714772463888328824e-01 -9.535350104920101155e-02 3.970043109723820240e+00 -1.086675218787220176e+00 1.714772463888328824e-01 -1.086675218787220176e+00 -6.606667361242291037e+00
1.093292126048201496e+01 -2.015066179005312041e-01 7.082805894351728027e-01 -2.015066179005312041e-01 8.035944920975522265e+00 -4.289403383756821286e-01 7.082805894351728027e-01 -4.289403383756821286e-01 -8.934141556424415320e-01
7.030016487207913833e+00 -7.969798513678099106e-01 1.156336743767749642e+00 -7.969798513678099106e-01 3.286576025530243861e+00 -1.021514679665616182e-01 1.156336743767749642e+00 -1.021514679665616182e-01 1.232619829276270673e+00
1.784964353458870168e+00 -4.053476878244716142e-01 1.166723132248502548e+00 -4.053476878244716142e-01 -3.586439831913043053e-01 -1.383261393749809220e-01 1.166723132248502548e+00 -1.383261393749809220e-01 -5.683007228686308032e+00
-3.882906185202629867e+00 6.557653407261458955e-01 -2.182467249219640498e-02 6.557653407261458955e-01 -3.158865765602711928e+00 -2.912791101842049923e-01 -2.182467249219640498e-02 -2.912791101842049923e-01 -1.063862733887904000e+01
-5.866763462883635150e+00 1.029467047979049088e+00 -5.167739420366235237e-01 1.029467047979049088e+00 -8.189921477610822009e+00 -4.459408052451525606e-01 -5.167739420366235237e-01 -4.459408052451525606e-01 -1.108293029379858297e+01
-5.109530144279070818e+00 4.871273498417194592e-01 -4.581218481733757564e-01 4.871273498417194592e-01 -8.394347223441936734e+00 -1.054544814898379146e+00 -4.581218481733757564e-01 -1.054544814898379146e+00 -1.656857741703809950e+01
-2.529145735656130434e+00 -1.475118189636792296e-02 -1.117544644489442796e+00 -1.475118189636792296e-02 -4.221127554490537115e+00 -4.108791613917296415e-01 -1.117544644489442796e+00 -4.108791613917296415e-01 -1.371987914360237859e+01