
5000 atoms
15 atom types
   0.0000000000   39.1200000000 xlo xhi
   0.0000000000   39.1200000000 ylo yhi
   0.0000000000   40.8800000000 zlo zhi
   0.0000000000    0.0000000000    0.0000000000 xy xz yz

Atoms # atomic

     1      2    0.0003511143    0.0003579596    0.4340241783
     2      2    3.9123511143    0.0003579596    0.4340241783
     3      2    7.8243511143    0.0003579596    0.4340241783
     4      2   11.7363511143    0.0003579596    0.4340241783
     5      2   15.6483511143    0.0003579596    0.4340241783
     6      2   19.5603511143    0.0003579596    0.4340241783
     7      2   23.4723511143    0.0003579596    0.4340241783
     8      2   27.3843511143    0.0003579596    0.4340241783
     9      2   31.2963511143    0.0003579596    0.4340241783
    10      2   35.2083511143    0.0003579596    0.4340241783
    11      2    0.0003511143    3.9123579596    0.4340241783
    12      2    3.9123511143    3.9123579596    0.4340241783
    13      2    7.8243511143    3.9123579596    0.4340241783
    14      2   11.7363511143    3.9123579596    0.4340241783
    15      2   15.6483511143    3.9123579596    0.4340241783
    16      2   19.5603511143    3.9123579596    0.4340241783
    17      2   23.4723511143    3.9123579596    0.4340241783
    18      2   27.3843511143    3.9123579596    0.4340241783
    19      2   31.2963511143    3.9123579596    0.4340241783
    20      2   35.2083511143    3.9123579596    0.4340241783
    21      2    0.0003511143    7.8243579596    0.4340241783
    22      2    3.9123511143    7.8243579596    0.4340241783
    23      2    7.8243511143    7.8243579596    0.4340241783
    24      2   11.7363511143    7.8243579596    0.4340241783
    25      2   15.6483511143    7.8243579596    0.4340241783
    26      2   19.5603511143    7.8243579596    0.4340241783
    27      2   23.4723511143    7.8243579596    0.4340241783
    28      2   27.3843511143    7.8243579596    0.4340241783
    29      2   31.2963511143    7.8243579596    0.4340241783
    30      2   35.2083511143    7.8243579596    0.4340241783
    31      2    0.0003511143   11.7363579596    0.4340241783
    32      2    3.9123511143   11.7363579596    0.4340241783
    33      2    7.8243511143   11.7363579596    0.4340241783
    34      2   11.7363511143   11.7363579596    0.4340241783
    35      2   15.6483511143   11.7363579596    0.4340241783
    36      2   19.5603511143   11.7363579596    0.4340241783
    37      2   23.4723511143   11.7363579596    0.4340241783
    38      2   27.3843511143   11.7363579596    0.4340241783
    39      2   31.2963511143   11.7363579596    0.4340241783
    40      2   35.2083511143   11.7363579596    0.4340241783
    41      2    0.0003511143   15.6483579596    0.4340241783
    42      2    3.9123511143   15.6483579596    0.4340241783
    43      2    7.8243511143   15.6483579596    0.4340241783
    44      2   11.7363511143   15.6483579596    0.4340241783
    45      2   15.6483511143   15.6483579596    0.4340241783
    46      2   19.5603511143   15.6483579596    0.4340241783
    47      2   23.4723511143   15.6483579596    0.4340241783
    48      2   27.3843511143   15.6483579596    0.4340241783
    49      2   31.2963511143   15.6483579596    0.4340241783
    50      2   35.2083511143   15.6483579596    0.4340241783
    51      2    0.0003511143   19.5603579596    0.4340241783
    52      2    3.9123511143   19.5603579596    0.4340241783
    53      2    7.8243511143   19.5603579596    0.4340241783
    54      2   11.7363511143   19.5603579596    0.4340241783
    55      2   15.6483511143   19.5603579596    0.4340241783
    56      2   19.5603511143   19.5603579596    0.4340241783
    57      2   23.4723511143   19.5603579596    0.4340241783
    58      2   27.3843511143   19.5603579596    0.4340241783
    59      2   31.2963511143   19.5603579596    0.4340241783
    60      2   35.2083511143   19.5603579596    0.4340241783
    61      2    0.0003511143   23.4723579596    0.4340241783
    62      2    3.9123511143   23.4723579596    0.4340241783
    63      2    7.8243511143   23.4723579596    0.4340241783
    64      2   11.7363511143   23.4723579596    0.4340241783
    65      2   15.6483511143   23.4723579596    0.4340241783
    66      2   19.5603511143   23.4723579596    0.4340241783
    67      2   23.4723511143   23.4723579596    0.4340241783
    68      2   27.3843511143   23.4723579596    0.4340241783
    69      2   31.2963511143   23.4723579596    0.4340241783
    70      2   35.2083511143   23.4723579596    0.4340241783
    71      2    0.0003511143   27.3843579596    0.4340241783
    72      2    3.9123511143   27.3843579596    0.4340241783
    73      2    7.8243511143   27.3843579596    0.4340241783
    74      2   11.7363511143   27.3843579596    0.4340241783
    75      2   15.6483511143   27.3843579596    0.4340241783
    76      2   19.5603511143   27.3843579596    0.4340241783
    77      2   23.4723511143   27.3843579596    0.4340241783
    78      2   27.3843511143   27.3843579596    0.4340241783
    79      2   31.2963511143   27.3843579596    0.4340241783
    80      2   35.2083511143   27.3843579596    0.4340241783
    81      2    0.0003511143   31.2963579596    0.4340241783
    82      2    3.9123511143   31.2963579596    0.4340241783
    83      2    7.8243511143   31.2963579596    0.4340241783
    84      2   11.7363511143   31.2963579596    0.4340241783
    85      2   15.6483511143   31.2963579596    0.4340241783
    86      2   19.5603511143   31.2963579596    0.4340241783
    87      2   23.4723511143   31.2963579596    0.4340241783
    88      2   27.3843511143   31.2963579596    0.4340241783
    89      2   31.2963511143   31.2963579596    0.4340241783
    90      2   35.2083511143   31.2963579596    0.4340241783
    91      2    0.0003511143   35.2083579596    0.4340241783
    92      2    3.9123511143   35.2083579596    0.4340241783
    93      2    7.8243511143   35.2083579596    0.4340241783
    94      2   11.7363511143   35.2083579596    0.4340241783
    95      2   15.6483511143   35.2083579596    0.4340241783
    96      2   19.5603511143   35.2083579596    0.4340241783
    97      2   23.4723511143   35.2083579596    0.4340241783
    98      2   27.3843511143   35.2083579596    0.4340241783
    99      2   31.2963511143   35.2083579596    0.4340241783
   100      2   35.2083511143   35.2083579596    0.4340241783
   101      2    0.0003511143    0.0003579596    4.5220241783
   102      2    3.9123511143    0.0003579596    4.5220241783
   103      2    7.8243511143    0.0003579596    4.5220241783
   104      2   11.7363511143    0.0003579596    4.5220241783
   105      2   15.6483511143    0.0003579596    4.5220241783
   106      2   19.5603511143    0.0003579596    4.5220241783
   107      2   23.4723511143    0.0003579596    4.5220241783
   108      2   27.3843511143    0.0003579596    4.5220241783
   109      2   31.2963511143    0.0003579596    4.5220241783
   110      2   35.2083511143    0.0003579596    4.5220241783
   111      2    0.0003511143    3.9123579596    4.5220241783
   112      2    3.9123511143    3.9123579596    4.5220241783
   113      2    7.8243511143    3.9123579596    4.5220241783
   114      2   11.7363511143    3.9123579596    4.5220241783
   115      2   15.6483511143    3.9123579596    4.5220241783
   116      2   19.5603511143    3.9123579596    4.5220241783
   117      2   23.4723511143    3.9123579596    4.5220241783
   118      2   27.3843511143    3.9123579596    4.5220241783
   119      2   31.2963511143    3.9123579596    4.5220241783
   120      2   35.2083511143    3.9123579596    4.5220241783
   121      2    0.0003511143    7.8243579596    4.5220241783
   122      2    3.9123511143    7.8243579596    4.5220241783
   123      2    7.8243511143    7.8243579596    4.5220241783
   124      2   11.7363511143    7.8243579596    4.5220241783
   125      2   15.6483511143    7.8243579596    4.5220241783
   126      2   19.5603511143    7.8243579596    4.5220241783
   127      2   23.4723511143    7.8243579596    4.5220241783
   128      2   27.3843511143    7.8243579596    4.5220241783
   129      2   31.2963511143    7.8243579596    4.5220241783
   130      2   35.2083511143    7.8243579596    4.5220241783
   131      2    0.0003511143   11.7363579596    4.5220241783
   132      2    3.9123511143   11.7363579596    4.5220241783
   133      2    7.8243511143   11.7363579596    4.5220241783
   134      2   11.7363511143   11.7363579596    4.5220241783
   135      2   15.6483511143   11.7363579596    4.5220241783
   136      2   19.5603511143   11.7363579596    4.5220241783
   137      2   23.4723511143   11.7363579596    4.5220241783
   138      2   27.3843511143   11.7363579596    4.5220241783
   139      2   31.2963511143   11.7363579596    4.5220241783
   140      2   35.2083511143   11.7363579596    4.5220241783
   141      2    0.0003511143   15.6483579596    4.5220241783
   142      2    3.9123511143   15.6483579596    4.5220241783
   143      2    7.8243511143   15.6483579596    4.5220241783
   144      2   11.7363511143   15.6483579596    4.5220241783
   145      2   15.6483511143   15.6483579596    4.5220241783
   146      2   19.5603511143   15.6483579596    4.5220241783
   147      2   23.4723511143   15.6483579596    4.5220241783
   148      2   27.3843511143   15.6483579596    4.5220241783
   149      2   31.2963511143   15.6483579596    4.5220241783
   150      2   35.2083511143   15.6483579596    4.5220241783
   151      2    0.0003511143   19.5603579596    4.5220241783
   152      2    3.9123511143   19.5603579596    4.5220241783
   153      2    7.8243511143   19.5603579596    4.5220241783
   154      2   11.7363511143   19.5603579596    4.5220241783
   155      2   15.6483511143   19.5603579596    4.5220241783
   156      2   19.5603511143   19.5603579596    4.5220241783
   157      2   23.4723511143   19.5603579596    4.5220241783
   158      2   27.3843511143   19.5603579596    4.5220241783
   159      2   31.2963511143   19.5603579596    4.5220241783
   160      2   35.2083511143   19.5603579596    4.5220241783
   161      2    0.0003511143   23.4723579596    4.5220241783
   162      2    3.9123511143   23.4723579596    4.5220241783
   163      2    7.8243511143   23.4723579596    4.5220241783
   164      2   11.7363511143   23.4723579596    4.5220241783
   165      2   15.6483511143   23.4723579596    4.5220241783
   166      2   19.5603511143   23.4723579596    4.5220241783
   167      2   23.4723511143   23.4723579596    4.5220241783
   168      2   27.3843511143   23.4723579596    4.5220241783
   169      2   31.2963511143   23.4723579596    4.5220241783
   170      2   35.2083511143   23.4723579596    4.5220241783
   171      2    0.0003511143   27.3843579596    4.5220241783
   172      2    3.9123511143   27.3843579596    4.5220241783
   173      2    7.8243511143   27.3843579596    4.5220241783
   174      2   11.7363511143   27.3843579596    4.5220241783
   175      2   15.6483511143   27.3843579596    4.5220241783
   176      2   19.5603511143   27.3843579596    4.5220241783
   177      2   23.4723511143   27.3843579596    4.5220241783
   178      2   27.3843511143   27.3843579596    4.5220241783
   179      2   31.2963511143   27.3843579596    4.5220241783
   180      2   35.2083511143   27.3843579596    4.5220241783
   181      2    0.0003511143   31.2963579596    4.5220241783
   182      2    3.9123511143   31.2963579596    4.5220241783
   183      2    7.8243511143   31.2963579596    4.5220241783
   184      2   11.7363511143   31.2963579596    4.5220241783
   185      2   15.6483511143   31.2963579596    4.5220241783
   186      2   19.5603511143   31.2963579596    4.5220241783
   187      2   23.4723511143   31.2963579596    4.5220241783
   188      2   27.3843511143   31.2963579596    4.5220241783
   189      2   31.2963511143   31.2963579596    4.5220241783
   190      2   35.2083511143   31.2963579596    4.5220241783
   191      2    0.0003511143   35.2083579596    4.5220241783
   192      2    3.9123511143   35.2083579596    4.5220241783
   193      2    7.8243511143   35.2083579596    4.5220241783
   194      2   11.7363511143   35.2083579596    4.5220241783
   195      2   15.6483511143   35.2083579596    4.5220241783
   196      2   19.5603511143   35.2083579596    4.5220241783
   197      2   23.4723511143   35.2083579596    4.5220241783
   198      2   27.3843511143   35.2083579596    4.5220241783
   199      2   31.2963511143   35.2083579596    4.5220241783
   200      2   35.2083511143   35.2083579596    4.5220241783
   201      2    0.0003511143    0.0003579596    8.6100241783
   202      2    3.9123511143    0.0003579596    8.6100241783
   203      2    7.8243511143    0.0003579596    8.6100241783
   204      2   11.7363511143    0.0003579596    8.6100241783
   205      2   15.6483511143    0.0003579596    8.6100241783
   206      2   19.5603511143    0.0003579596    8.6100241783
   207      2   23.4723511143    0.0003579596    8.6100241783
   208      2   27.3843511143    0.0003579596    8.6100241783
   209      2   31.2963511143    0.0003579596    8.6100241783
   210      2   35.2083511143    0.0003579596    8.6100241783
   211      2    0.0003511143    3.9123579596    8.6100241783
   212      2    3.9123511143    3.9123579596    8.6100241783
   213      2    7.8243511143    3.9123579596    8.6100241783
   214      2   11.7363511143    3.9123579596    8.6100241783
   215      2   15.6483511143    3.9123579596    8.6100241783
   216      2   19.5603511143    3.9123579596    8.6100241783
   217      2   23.4723511143    3.9123579596    8.6100241783
   218      2   27.3843511143    3.9123579596    8.6100241783
   219      2   31.2963511143    3.9123579596    8.6100241783
   220      2   35.2083511143    3.9123579596    8.6100241783
   221      2    0.0003511143    7.8243579596    8.6100241783
   222      2    3.9123511143    7.8243579596    8.6100241783
   223      2    7.8243511143    7.8243579596    8.6100241783
   224      2   11.7363511143    7.8243579596    8.6100241783
   225      2   15.6483511143    7.8243579596    8.6100241783
   226      2   19.5603511143    7.8243579596    8.6100241783
   227      2   23.4723511143    7.8243579596    8.6100241783
   228      2   27.3843511143    7.8243579596    8.6100241783
   229      2   31.2963511143    7.8243579596    8.6100241783
   230      2   35.2083511143    7.8243579596    8.6100241783
   231      2    0.0003511143   11.7363579596    8.6100241783
   232      2    3.9123511143   11.7363579596    8.6100241783
   233      2    7.8243511143   11.7363579596    8.6100241783
   234      2   11.7363511143   11.7363579596    8.6100241783
   235      2   15.6483511143   11.7363579596    8.6100241783
   236      2   19.5603511143   11.7363579596    8.6100241783
   237      2   23.4723511143   11.7363579596    8.6100241783
   238      2   27.3843511143   11.7363579596    8.6100241783
   239      2   31.2963511143   11.7363579596    8.6100241783
   240      2   35.2083511143   11.7363579596    8.6100241783
   241      2    0.0003511143   15.6483579596    8.6100241783
   242      2    3.9123511143   15.6483579596    8.6100241783
   243      2    7.8243511143   15.6483579596    8.6100241783
   244      2   11.7363511143   15.6483579596    8.6100241783
   245      2   15.6483511143   15.6483579596    8.6100241783
   246      2   19.5603511143   15.6483579596    8.6100241783
   247      2   23.4723511143   15.6483579596    8.6100241783
   248      2   27.3843511143   15.6483579596    8.6100241783
   249      2   31.2963511143   15.6483579596    8.6100241783
   250      2   35.2083511143   15.6483579596    8.6100241783
   251      2    0.0003511143   19.5603579596    8.6100241783
   252      2    3.9123511143   19.5603579596    8.6100241783
   253      2    7.8243511143   19.5603579596    8.6100241783
   254      2   11.7363511143   19.5603579596    8.6100241783
   255      2   15.6483511143   19.5603579596    8.6100241783
   256      2   19.5603511143   19.5603579596    8.6100241783
   257      2   23.4723511143   19.5603579596    8.6100241783
   258      2   27.3843511143   19.5603579596    8.6100241783
   259      2   31.2963511143   19.5603579596    8.6100241783
   260      2   35.2083511143   19.5603579596    8.6100241783
   261      2    0.0003511143   23.4723579596    8.6100241783
   262      2    3.9123511143   23.4723579596    8.6100241783
   263      2    7.8243511143   23.4723579596    8.6100241783
   264      2   11.7363511143   23.4723579596    8.6100241783
   265      2   15.6483511143   23.4723579596    8.6100241783
   266      2   19.5603511143   23.4723579596    8.6100241783
   267      2   23.4723511143   23.4723579596    8.6100241783
   268      2   27.3843511143   23.4723579596    8.6100241783
   269      2   31.2963511143   23.4723579596    8.6100241783
   270      2   35.2083511143   23.4723579596    8.6100241783
   271      2    0.0003511143   27.3843579596    8.6100241783
   272      2    3.9123511143   27.3843579596    8.6100241783
   273      2    7.8243511143   27.3843579596    8.6100241783
   274      2   11.7363511143   27.3843579596    8.6100241783
   275      2   15.6483511143   27.3843579596    8.6100241783
   276      2   19.5603511143   27.3843579596    8.6100241783
   277      2   23.4723511143   27.3843579596    8.6100241783
   278      2   27.3843511143   27.3843579596    8.6100241783
   279      2   31.2963511143   27.3843579596    8.6100241783
   280      2   35.2083511143   27.3843579596    8.6100241783
   281      2    0.0003511143   31.2963579596    8.6100241783
   282      2    3.9123511143   31.2963579596    8.6100241783
   283      2    7.8243511143   31.2963579596    8.6100241783
   284      2   11.7363511143   31.2963579596    8.6100241783
   285      2   15.6483511143   31.2963579596    8.6100241783
   286      2   19.5603511143   31.2963579596    8.6100241783
   287      2   23.4723511143   31.2963579596    8.6100241783
   288      2   27.3843511143   31.2963579596    8.6100241783
   289      2   31.2963511143   31.2963579596    8.6100241783
   290      2   35.2083511143   31.2963579596    8.6100241783
   291      2    0.0003511143   35.2083579596    8.6100241783
   292      2    3.9123511143   35.2083579596    8.6100241783
   293      2    7.8243511143   35.2083579596    8.6100241783
   294      2   11.7363511143   35.2083579596    8.6100241783
   295      2   15.6483511143   35.2083579596    8.6100241783
   296      2   19.5603511143   35.2083579596    8.6100241783
   297      2   23.4723511143   35.2083579596    8.6100241783
   298      2   27.3843511143   35.2083579596    8.6100241783
   299      2   31.2963511143   35.2083579596    8.6100241783
   300      2   35.2083511143   35.2083579596    8.6100241783
   301      2    0.0003511143    0.0003579596   12.6980241783
   302      2    3.9123511143    0.0003579596   12.6980241783
   303      2    7.8243511143    0.0003579596   12.6980241783
   304      2   11.7363511143    0.0003579596   12.6980241783
   305      2   15.6483511143    0.0003579596   12.6980241783
   306      2   19.5603511143    0.0003579596   12.6980241783
   307      2   23.4723511143    0.0003579596   12.6980241783
   308      2   27.3843511143    0.0003579596   12.6980241783
   309      2   31.2963511143    0.0003579596   12.6980241783
   310      2   35.2083511143    0.0003579596   12.6980241783
   311      2    0.0003511143    3.9123579596   12.6980241783
   312      2    3.9123511143    3.9123579596   12.6980241783
   313      2    7.8243511143    3.9123579596   12.6980241783
   314      2   11.7363511143    3.9123579596   12.6980241783
   315      2   15.6483511143    3.9123579596   12.6980241783
   316      2   19.5603511143    3.9123579596   12.6980241783
   317      2   23.4723511143    3.9123579596   12.6980241783
   318      2   27.3843511143    3.9123579596   12.6980241783
   319      2   31.2963511143    3.9123579596   12.6980241783
   320      2   35.2083511143    3.9123579596   12.6980241783
   321      2    0.0003511143    7.8243579596   12.6980241783
   322      2    3.9123511143    7.8243579596   12.6980241783
   323      2    7.8243511143    7.8243579596   12.6980241783
   324      2   11.7363511143    7.8243579596   12.6980241783
   325      2   15.6483511143    7.8243579596   12.6980241783
   326      2   19.5603511143    7.8243579596   12.6980241783
   327      2   23.4723511143    7.8243579596   12.6980241783
   328      2   27.3843511143    7.8243579596   12.6980241783
   329      2   31.2963511143    7.8243579596   12.6980241783
   330      2   35.2083511143    7.8243579596   12.6980241783
   331      2    0.0003511143   11.7363579596   12.6980241783
   332      2    3.9123511143   11.7363579596   12.6980241783
   333      2    7.8243511143   11.7363579596   12.6980241783
   334      2   11.7363511143   11.7363579596   12.6980241783
   335      2   15.6483511143   11.7363579596   12.6980241783
   336      2   19.5603511143   11.7363579596   12.6980241783
   337      2   23.4723511143   11.7363579596   12.6980241783
   338      2   27.3843511143   11.7363579596   12.6980241783
   339      2   31.2963511143   11.7363579596   12.6980241783
   340      2   35.2083511143   11.7363579596   12.6980241783
   341      2    0.0003511143   15.6483579596   12.6980241783
   342      2    3.9123511143   15.6483579596   12.6980241783
   343      2    7.8243511143   15.6483579596   12.6980241783
   344      2   11.7363511143   15.6483579596   12.6980241783
   345      2   15.6483511143   15.6483579596   12.6980241783
   346      2   19.5603511143   15.6483579596   12.6980241783
   347      2   23.4723511143   15.6483579596   12.6980241783
   348      2   27.3843511143   15.6483579596   12.6980241783
   349      2   31.2963511143   15.6483579596   12.6980241783
   350      2   35.2083511143   15.6483579596   12.6980241783
   351      2    0.0003511143   19.5603579596   12.6980241783
   352      2    3.9123511143   19.5603579596   12.6980241783
   353      2    7.8243511143   19.5603579596   12.6980241783
   354      2   11.7363511143   19.5603579596   12.6980241783
   355      2   15.6483511143   19.5603579596   12.6980241783
   356      2   19.5603511143   19.5603579596   12.6980241783
   357      2   23.4723511143   19.5603579596   12.6980241783
   358      2   27.3843511143   19.5603579596   12.6980241783
   359      2   31.2963511143   19.5603579596   12.6980241783
   360      2   35.2083511143   19.5603579596   12.6980241783
   361      2    0.0003511143   23.4723579596   12.6980241783
   362      2    3.9123511143   23.4723579596   12.6980241783
   363      2    7.8243511143   23.4723579596   12.6980241783
   364      2   11.7363511143   23.4723579596   12.6980241783
   365      2   15.6483511143   23.4723579596   12.6980241783
   366      2   19.5603511143   23.4723579596   12.6980241783
   367      2   23.4723511143   23.4723579596   12.6980241783
   368      2   27.3843511143   23.4723579596   12.6980241783
   369      2   31.2963511143   23.4723579596   12.6980241783
   370      2   35.2083511143   23.4723579596   12.6980241783
   371      2    0.0003511143   27.3843579596   12.6980241783
   372      2    3.9123511143   27.3843579596   12.6980241783
   373      2    7.8243511143   27.3843579596   12.6980241783
   374      2   11.7363511143   27.3843579596   12.6980241783
   375      2   15.6483511143   27.3843579596   12.6980241783
   376      2   19.5603511143   27.3843579596   12.6980241783
   377      2   23.4723511143   27.3843579596   12.6980241783
   378      2   27.3843511143   27.3843579596   12.6980241783
   379      2   31.2963511143   27.3843579596   12.6980241783
   380      2   35.2083511143   27.3843579596   12.6980241783
   381      2    0.0003511143   31.2963579596   12.6980241783
   382      2    3.9123511143   31.2963579596   12.6980241783
   383      2    7.8243511143   31.2963579596   12.6980241783
   384      2   11.7363511143   31.2963579596   12.6980241783
   385      2   15.6483511143   31.2963579596   12.6980241783
   386      2   19.5603511143   31.2963579596   12.6980241783
   387      2   23.4723511143   31.2963579596   12.6980241783
   388      2   27.3843511143   31.2963579596   12.6980241783
   389      2   31.2963511143   31.2963579596   12.6980241783
   390      2   35.2083511143   31.2963579596   12.6980241783
   391      2    0.0003511143   35.2083579596   12.6980241783
   392      2    3.9123511143   35.2083579596   12.6980241783
   393      2    7.8243511143   35.2083579596   12.6980241783
   394      2   11.7363511143   35.2083579596   12.6980241783
   395      2   15.6483511143   35.2083579596   12.6980241783
   396      2   19.5603511143   35.2083579596   12.6980241783
   397      2   23.4723511143   35.2083579596   12.6980241783
   398      2   27.3843511143   35.2083579596   12.6980241783
   399      2   31.2963511143   35.2083579596   12.6980241783
   400      2   35.2083511143   35.2083579596   12.6980241783
   401      2    0.0003511143    0.0003579596   16.7860241783
   402      2    3.9123511143    0.0003579596   16.7860241783
   403      2    7.8243511143    0.0003579596   16.7860241783
   404      2   11.7363511143    0.0003579596   16.7860241783
   405      2   15.6483511143    0.0003579596   16.7860241783
   406      2   19.5603511143    0.0003579596   16.7860241783
   407      2   23.4723511143    0.0003579596   16.7860241783
   408      2   27.3843511143    0.0003579596   16.7860241783
   409      2   31.2963511143    0.0003579596   16.7860241783
   410      2   35.2083511143    0.0003579596   16.7860241783
   411      2    0.0003511143    3.9123579596   16.7860241783
   412      2    3.9123511143    3.9123579596   16.7860241783
   413      2    7.8243511143    3.9123579596   16.7860241783
   414      2   11.7363511143    3.9123579596   16.7860241783
   415      2   15.6483511143    3.9123579596   16.7860241783
   416      2   19.5603511143    3.9123579596   16.7860241783
   417      2   23.4723511143    3.9123579596   16.7860241783
   418      2   27.3843511143    3.9123579596   16.7860241783
   419      2   31.2963511143    3.9123579596   16.7860241783
   420      2   35.2083511143    3.9123579596   16.7860241783
   421      2    0.0003511143    7.8243579596   16.7860241783
   422      2    3.9123511143    7.8243579596   16.7860241783
   423      2    7.8243511143    7.8243579596   16.7860241783
   424      2   11.7363511143    7.8243579596   16.7860241783
   425      2   15.6483511143    7.8243579596   16.7860241783
   426      2   19.5603511143    7.8243579596   16.7860241783
   427      2   23.4723511143    7.8243579596   16.7860241783
   428      2   27.3843511143    7.8243579596   16.7860241783
   429      2   31.2963511143    7.8243579596   16.7860241783
   430      2   35.2083511143    7.8243579596   16.7860241783
   431      2    0.0003511143   11.7363579596   16.7860241783
   432      2    3.9123511143   11.7363579596   16.7860241783
   433      2    7.8243511143   11.7363579596   16.7860241783
   434      2   11.7363511143   11.7363579596   16.7860241783
   435      2   15.6483511143   11.7363579596   16.7860241783
   436      2   19.5603511143   11.7363579596   16.7860241783
   437      2   23.4723511143   11.7363579596   16.7860241783
   438      2   27.3843511143   11.7363579596   16.7860241783
   439      2   31.2963511143   11.7363579596   16.7860241783
   440      2   35.2083511143   11.7363579596   16.7860241783
   441      2    0.0003511143   15.6483579596   16.7860241783
   442      2    3.9123511143   15.6483579596   16.7860241783
   443      2    7.8243511143   15.6483579596   16.7860241783
   444      2   11.7363511143   15.6483579596   16.7860241783
   445      2   15.6483511143   15.6483579596   16.7860241783
   446      2   19.5603511143   15.6483579596   16.7860241783
   447      2   23.4723511143   15.6483579596   16.7860241783
   448      2   27.3843511143   15.6483579596   16.7860241783
   449      2   31.2963511143   15.6483579596   16.7860241783
   450      2   35.2083511143   15.6483579596   16.7860241783
   451      2    0.0003511143   19.5603579596   16.7860241783
   452      2    3.9123511143   19.5603579596   16.7860241783
   453      2    7.8243511143   19.5603579596   16.7860241783
   454      2   11.7363511143   19.5603579596   16.7860241783
   455      2   15.6483511143   19.5603579596   16.7860241783
   456      2   19.5603511143   19.5603579596   16.7860241783
   457      2   23.4723511143   19.5603579596   16.7860241783
   458      2   27.3843511143   19.5603579596   16.7860241783
   459      2   31.2963511143   19.5603579596   16.7860241783
   460      2   35.2083511143   19.5603579596   16.7860241783
   461      2    0.0003511143   23.4723579596   16.7860241783
   462      2    3.9123511143   23.4723579596   16.7860241783
   463      2    7.8243511143   23.4723579596   16.7860241783
   464      2   11.7363511143   23.4723579596   16.7860241783
   465      2   15.6483511143   23.4723579596   16.7860241783
   466      2   19.5603511143   23.4723579596   16.7860241783
   467      2   23.4723511143   23.4723579596   16.7860241783
   468      2   27.3843511143   23.4723579596   16.7860241783
   469      2   31.2963511143   23.4723579596   16.7860241783
   470      2   35.2083511143   23.4723579596   16.7860241783
   471      2    0.0003511143   27.3843579596   16.7860241783
   472      2    3.9123511143   27.3843579596   16.7860241783
   473      2    7.8243511143   27.3843579596   16.7860241783
   474      2   11.7363511143   27.3843579596   16.7860241783
   475      2   15.6483511143   27.3843579596   16.7860241783
   476      2   19.5603511143   27.3843579596   16.7860241783
   477      2   23.4723511143   27.3843579596   16.7860241783
   478      2   27.3843511143   27.3843579596   16.7860241783
   479      2   31.2963511143   27.3843579596   16.7860241783
   480      2   35.2083511143   27.3843579596   16.7860241783