
5000 atoms
15 atom types
   0.0000000000   40.0654602051 xlo xhi
   0.0000000000   40.0653241822 ylo yhi
   0.0000000000   40.0651888659 zlo zhi
   0.1044012548    0.1044012548    0.1041295630 xy xz yz

Atoms # atomic

     1      1    0.0000000000    0.0000000000    0.0000000000
     2      1    0.0104401254    0.0104129562    4.0065188465
     3      1    0.0208802508    0.0208259124    8.0130376930
     4      1    0.0313203773    0.0312388697   12.0195569803
     5      1    0.0417605014    0.0416518247   16.0260753460
     6      1    0.0522006280    0.0520647821   20.0325946733
     7      1    0.0626407547    0.0624777396   24.0391140006
     8      1    0.0730808763    0.0728906920   28.0456314048
     9      1    0.0835210029    0.0833036495   32.0521507321
    10      1    0.0939611295    0.0937166069   36.0586700594
    11      1    0.0104401249    4.0065321778    0.0000000000
    12      1    0.0208802509    4.0169453744    4.0065188465
    13      1    0.0313203755    4.0273580502    8.0130376930
    14      1    0.0417605025    4.0377712078   12.0195569803
    15      1    0.0522006260    4.0481839224   16.0260753460
    16      1    0.0626407532    4.0585970801   20.0325946733
    17      1    0.0730808792    4.0690097972   24.0391140006
    18      1    0.0835210013    4.0794229500   28.0456314048
    19      1    0.0939611272    4.0898356270   32.0521507321
    20      1    0.1044012545    4.1002488248   36.0586700594
    21      1    0.0208802498    8.0130643957    0.0000000000
    22      1    0.0313203757    8.0234775522    4.0065188465
    23      1    0.0417605016    8.0338907088    8.0130376930
    24      1    0.0522006263    8.0443029449   12.0195569803
    25      1    0.0626407509    8.0547161002   16.0260753460
    26      1    0.0730808782    8.0651292980   20.0325946733
    27      1    0.0835210053    8.0755424558   24.0391140006
    28      1    0.0939611249    8.0859546470   28.0456314048
    29      1    0.1044012522    8.0963678449   32.0521507321
    30      1    0.1148413793    8.1067810026   36.0586700594
    31      1    0.0313203759   12.0195970543    0.0000000000
    32      1    0.0417605018   12.0300102109    4.0065188465
    33      1    0.0522006278   12.0404234074    8.0130376930
    34      1    0.0626407524   12.0508356035   12.0195569803
    35      1    0.0730808771   12.0612487989   16.0260753460
    36      1    0.0835210043   12.0716619567   20.0325946733
    37      1    0.0939611314   12.0820751144   24.0391140006
    38      1    0.1044012511   12.0924873457   28.0456314048
    39      1    0.1148413783   12.1029005035   32.0521507321
    40      1    0.1252815054   12.1133136612   36.0586700594
    41      1    0.0417604995   16.0261287514    0.0000000000
    42      1    0.0522006230   16.0365409864    4.0065188465
    43      1    0.0626407514   16.0469551045    8.0130376930
    44      1    0.0730808761   16.0573673407   12.0195569803
    45      1    0.0835210032   16.0677814575   16.0260753460
    46      1    0.0939611279   16.0781936537   20.0325946733
    47      1    0.1044012526   16.0886058900   24.0391140006
    48      1    0.1148413773   16.0990200043   28.0456314048
    49      1    0.1252815019   16.1094322005   32.0521507321
    50      1    0.1357216266   16.1198444368   36.0586700594
    51      1    0.0522006257   20.0326614501    0.0000000000
    52      1    0.0626407491   20.0430736450    4.0065188465
    53      1    0.0730808775   20.0534877631    8.0130376930
    54      1    0.0835210022   20.0638999993   12.0195569803
    55      1    0.0939611293   20.0743141161   16.0260753460
    56      1    0.1044012541   20.0847263524   20.0325946733
    57      1    0.1148413787   20.0951385486   24.0391140006
    58      1    0.1252815034   20.1055526629   28.0456314048
    59      1    0.1357216281   20.1159648992   32.0521507321
    60      1    0.1461617528   20.1263770954   36.0586700594
    61      1    0.0626407518   24.0391941087    0.0000000000
    62      1    0.0730808752   24.0496063036    4.0065188465
    63      1    0.0835210037   24.0600204618    8.0130376930
    64      1    0.0939611283   24.0704326579   12.0195569803
    65      1    0.1044012554   24.0808467747   16.0260753460
    66      1    0.1148413802   24.0912590110   20.0325946733
    67      1    0.1252815048   24.1016712072   24.0391140006
    68      1    0.1357216296   24.1120853616   28.0456314048
    69      1    0.1461617542   24.1224975578   32.0521507321
    70      1    0.1566018790   24.1329097941   36.0586700594
    71      1    0.0730808730   28.0457248842    0.0000000000
    72      1    0.0835209964   28.0561370792    4.0065188465
    73      1    0.0939611248   28.0665511973    8.0130376930
    74      1    0.1044012495   28.0769634334   12.0195569803
    75      1    0.1148413766   28.0873775503   16.0260753460
    76      1    0.1252815013   28.0977897465   20.0325946733
    77      1    0.1357216260   28.1082019827   24.0391140006
    78      1    0.1461617507   28.1186160971   28.0456314048
    79      1    0.1566018754   28.1290283333   32.0521507321
    80      1    0.1670420001   28.1394405295   36.0586700594
    81      1    0.0835209991   32.0522575428    0.0000000000
    82      1    0.0939611275   32.0626716609    4.0065188465
    83      1    0.1044012460   32.0730819728    8.0130376930
    84      1    0.1148413756   32.0834960920   12.0195569803
    85      1    0.1252815027   32.0939102089   16.0260753460
    86      1    0.1357216225   32.1043205220   20.0325946733
    87      1    0.1461617521   32.1147346413   24.0391140006
    88      1    0.1566018768   32.1251487557   28.0456314048
    89      1    0.1670420065   32.1355629151   32.0521507321
    90      1    0.1774821262   32.1459731882   36.0586700594
    91      1    0.0939611203   36.0587883184    0.0000000000
    92      1    0.1044012487   36.0692024365    4.0065188465
    93      1    0.1148413672   36.0796127483    8.0130376930
    94      1    0.1252814968   36.0900268676   12.0195569803
    95      1    0.1357216239   36.1004409844   16.0260753460
    96      1    0.1461617437   36.1108512975   20.0325946733
    97      1    0.1566018733   36.1212654169   24.0391140006
    98      1    0.1670419980   36.1316795312   28.0456314048
    99      1    0.1774821276   36.1420936506   32.0521507321
   100      1    0.1879222474   36.1525039637   36.0586700594
   101      1    4.0065460205    0.0000000000    0.0000000000
   102      1    4.0169863863    0.0104129562    4.0065188465
   103      1    4.0274262312    0.0208259124    8.0130376930
   104      1    4.0378665981    0.0312388697   12.0195569803
   105      1    4.0483064818    0.0416518247   16.0260753460
   106      1    4.0587468088    0.0520647821   20.0325946733
   107      1    4.0691866950    0.0624777396   24.0391140006
   108      1    4.0796270570    0.0728906920   28.0456314048
   109      1    4.0900669032    0.0833036495   32.0521507321
   110      1    4.1005072702    0.0937166069   36.0586700594
   111      1    4.0169863858    4.0065321778    0.0000000000
   112      1    4.0274267121    4.0169453744    4.0065188465
   113      1    4.0378665963    4.0273580502    8.0130376930
   114      1    4.0483069237    4.0377712078   12.0195569803
   115      1    4.0587468068    4.0481839224   16.0260753460
   116      1    4.0691871744    4.0585970801   20.0325946733
   117      1    4.0796270199    4.0690097972   24.0391140006
   118      1    4.0900673824    4.0794229500   28.0456314048
   119      1    4.1005072679    4.0898356270   32.0521507321
   120      1    4.1109475955    4.1002488248   36.0586700594
   121      1    4.0274262303    8.0130643957    0.0000000000
   122      1    4.0378665965    8.0234775522    4.0065188465
   123      1    4.0483064821    8.0338907088    8.0130376930
   124      1    4.0587468070    8.0443029449   12.0195569803
   125      1    4.0691866913    8.0547161002   16.0260753460
   126      1    4.0796270189    8.0651292980   20.0325946733
   127      1    4.0900669056    8.0755424558   24.0391140006
   128      1    4.1005072656    8.0859546470   28.0456314048
   129      1    4.1109471124    8.0963678449   32.0521507321
   130      1    4.1213874800    8.1067810026   36.0586700594
   131      1    4.0378665968   12.0195970543    0.0000000000
   132      1    4.0483069230   12.0300102109    4.0065188465
   133      1    4.0587468086   12.0404234074    8.0130376930
   134      1    4.0691871735   12.0508356035   12.0195569803
   135      1    4.0796270178   12.0612487989   16.0260753460
   136      1    4.0900673854   12.0716619567   20.0325946733
   137      1    4.1005072721   12.0820751144   24.0391140006
   138      1    4.1109475922   12.0924873457   28.0456314048
   139      1    4.1213874789   12.1029005035   32.0521507321
   140      1    4.1318278465   12.1133136612   36.0586700594
   141      1    4.0483064800   16.0261287514    0.0000000000
   142      1    4.0587468038   16.0365409864    4.0065188465
   143      1    4.0691866918   16.0469551045    8.0130376930
   144      1    4.0796270568   16.0573673407   12.0195569803
   145      1    4.0900669035   16.0677814575   16.0260753460
   146      1    4.1005072686   16.0781936537   20.0325946733
   147      1    4.1109471129   16.0886058900   24.0391140006
   148      1    4.1213874779   16.0990200043   28.0456314048
   149      1    4.1318273621   16.1094322005   32.0521507321
   150      1    4.1422676872   16.1198444368   36.0586700594
   151      1    4.0587468065   20.0326614501    0.0000000000
   152      1    4.0691871703   20.0430736450    4.0065188465
   153      1    4.0796270182   20.0534877631    8.0130376930
   154      1    4.0900673833   20.0638999993   12.0195569803
   155      1    4.1005072700   20.0743141161   16.0260753460
   156      1    4.1109475951   20.0847263524   20.0325946733
   157      1    4.1213874794   20.0951385486   24.0391140006
   158      1    4.1318278444   20.1055526629   28.0456314048
   159      1    4.1422676887   20.1159648992   32.0521507321
   160      1    4.1527080537   20.1263770954   36.0586700594
   161      1    4.0691866922   24.0391941087    0.0000000000
   162      1    4.0796270560   24.0496063036    4.0065188465
   163      1    4.0900669040   24.0600204618    8.0130376930
   164      1    4.1005072690   24.0704326579   12.0195569803
   165      1    4.1109471157   24.0808467747   16.0260753460
   166      1    4.1213874808   24.0912590110   20.0325946733
   167      1    4.1318273651   24.1016712072   24.0391140006
   168      1    4.1422676901   24.1120853616   28.0456314048
   169      1    4.1527075744   24.1224975578   32.0521507321
   170      1    4.1631479395   24.1329097941   36.0586700594
   171      1    4.0796270538   28.0457248842    0.0000000000
   172      1    4.0900673775   28.0561370792    4.0065188465
   173      1    4.1005072655   28.0665511973    8.0130376930
   174      1    4.1109475905   28.0769634334   12.0195569803
   175      1    4.1213874773   28.0873775503   16.0260753460
   176      1    4.1318278423   28.0977897465   20.0325946733
   177      1    4.1422676866   28.1082019827   24.0391140006
   178      1    4.1527080516   28.1186160971   28.0456314048
   179      1    4.1631479360   28.1290283333   32.0521507321
   180      1    4.1735882610   28.1394405295   36.0586700594
   181      1    4.0900668995   32.0522575428    0.0000000000
   182      1    4.1005072683   32.0626716609    4.0065188465
   183      1    4.1109471463   32.0730819728    8.0130376930
   184      1    4.1213874762   32.0834960920   12.0195569803
   185      1    4.1318273630   32.0939102089   16.0260753460
   186      1    4.1422677231   32.1043205220   20.0325946733
   187      1    4.1527075723   32.1147346413   24.0391140006
   188      1    4.1631479373   32.1251487557   28.0456314048
   189      1    4.1735877866   32.1355629151   32.0521507321
   190      1    4.1840281467   32.1459731882   36.0586700594
   191      1    4.1005072610   36.0587883184    0.0000000000
   192      1    4.1109475898   36.0692024365    4.0065188465
   193      1    4.1213874679   36.0796127483    8.0130376930
   194      1    4.1318278378   36.0900268676   12.0195569803
   195      1    4.1422676845   36.1004409844   16.0260753460
   196      1    4.1527080446   36.1108512975   20.0325946733
   197      1    4.1631479339   36.1212654169   24.0391140006
   198      1    4.1735882589   36.1316795312   28.0456314048
   199      1    4.1840281481   36.1420936506   32.0521507321
   200      1    4.1944685083   36.1525039637   36.0586700594
   201      1    8.0130920410    0.0000000000    0.0000000000
   202      1    8.0235319260    0.0104129562    4.0065188465
   203      1    8.0339727325    0.0208259124    8.0130376930
   204      1    8.0444126186    0.0312388697   12.0195569803
   205      1    8.0548525024    0.0416518247   16.0260753460
   206      1    8.0652923485    0.0520647821   20.0325946733
   207      1    8.0757331963    0.0624777396   24.0391140006
   208      1    8.0861730776    0.0728906920   28.0456314048
   209      1    8.0966129237    0.0833036495   32.0521507321
   210      1    8.1070528100    0.0937166069   36.0586700594
   211      1    8.0235319255    4.0065321778    0.0000000000
   212      1    8.0339717710    4.0169453744    4.0065188465
   213      1    8.0444126168    4.0273580502    8.0130376930
   214      1    8.0548525035    4.0377712078   12.0195569803
   215      1    8.0652923465    4.0481839224   16.0260753460
   216      1    8.0757322333    4.0585970801   20.0325946733
   217      1    8.0861730404    4.0690097972   24.0391140006
   218      1    8.0966129222    4.0794229500   28.0456314048
   219      1    8.1070528077    4.0898356270   32.0521507321
   220      1    8.1174926945    4.1002488248   36.0586700594
   221      1    8.0339727316    8.0130643957    0.0000000000
   222      1    8.0444126171    8.0234775522    4.0065188465
   223      1    8.0548534241    8.0338907088    8.0130376930
   224      1    8.0652933083    8.0443029449   12.0195569803
   225      1    8.0757331926    8.0547161002   16.0260753460
   226      1    8.0861730394    8.0651292980   20.0325946733
   227      1    8.0966138877    8.0755424558   24.0391140006
   228      1    8.1070537669    8.0859546470   28.0456314048
   229      1    8.1174936137    8.0963678449   32.0521507321
   230      1    8.1279335005    8.1067810026   36.0586700594
   231      1    8.0444126173   12.0195970543    0.0000000000
   232      1    8.0548525028   12.0300102109    4.0065188465
   233      1    8.0652933099   12.0404234074    8.0130376930
   234      1    8.0757331940   12.0508356035   12.0195569803
   235      1    8.0861730383   12.0612487989   16.0260753460
   236      1    8.0966129251   12.0716619567   20.0325946733
   237      1    8.1070537734   12.0820751144   24.0391140006
   238      1    8.1174936127   12.0924873457   28.0456314048
   239      1    8.1279334994   12.1029005035   32.0521507321
   240      1    8.1383733862   12.1133136612   36.0586700594
   241      1    8.0548525005   16.0261287514    0.0000000000
   242      1    8.0652923435   16.0365409864    4.0065188465
   243      1    8.0757331931   16.0469551045    8.0130376930
   244      1    8.0861730773   16.0573673407   12.0195569803
   245      1    8.0966129240   16.0677814575   16.0260753460
   246      1    8.1070528083   16.0781936537   20.0325946733
   247      1    8.1174936142   16.0886058900   24.0391140006
   248      1    8.1279334984   16.0990200043   28.0456314048
   249      1    8.1383733827   16.1094322005   32.0521507321
   250      1    8.1488132670   16.1198444368   36.0586700594
   251      1    8.0652923462   20.0326614501    0.0000000000
   252      1    8.0757322292   20.0430736450    4.0065188465
   253      1    8.0861730387   20.0534877631    8.0130376930
   254      1    8.0966129230   20.0638999993   12.0195569803
   255      1    8.1070528098   20.0743141161   16.0260753460
   256      1    8.1174926941   20.0847263524   20.0325946733
   257      1    8.1279334999   20.0951385486   24.0391140006
   258      1    8.1383733841   20.1055526629   28.0456314048
   259      1    8.1488132284   20.1159648992   32.0521507321
   260      1    8.1592531127   20.1263770954   36.0586700594
   261      1    8.0757331935   24.0391941087    0.0000000000
   262      1    8.0861730765   24.0496063036    4.0065188465
   263      1    8.0966138861   24.0600204618    8.0130376930
   264      1    8.1070537703   24.0704326579   12.0195569803
   265      1    8.1174936170   24.0808467747   16.0260753460
   266      1    8.1279335013   24.0912590110   20.0325946733
   267      1    8.1383743471   24.1016712072   24.0391140006
   268      1    8.1488141914   24.1120853616   28.0456314048
   269      1    8.1592540757   24.1224975578   32.0521507321
   270      1    8.1696939600   24.1329097941   36.0586700594
   271      1    8.0861730743   28.0457248842    0.0000000000
   272      1    8.0966129173   28.0561370792    4.0065188465
   273      1    8.1070537668   28.0665511973    8.0130376930
   274      1    8.1174936110   28.0769634334   12.0195569803
   275      1    8.1279334978   28.0873775503   16.0260753460
   276      1    8.1383733820   28.0977897465   20.0325946733
   277      1    8.1488141879   28.1082019827   24.0391140006
   278      1    8.1592540721   28.1186160971   28.0456314048
   279      1    8.1696939565   28.1290283333   32.0521507321
   280      1    8.1801338007   28.1394405295   36.0586700594
   281      1    8.0966129200   32.0522575428    0.0000000000
   282      1    8.1070528080   32.0626716609    4.0065188465
   283      1    8.1174936476   32.0730819728    8.0130376930
   284      1    8.1279334967   32.0834960920   12.0195569803
   285      1    8.1383733835   32.0939102089   16.0260753460
   286      1    8.1488132628   32.1043205220   20.0325946733
   287      1    8.1592540736   32.1147346413   24.0391140006
   288      1    8.1696939579   32.1251487557   28.0456314048
   289      1    8.1801338072   32.1355629151   32.0521507321
   290      1    8.1905736864   32.1459731882   36.0586700594
   291      1    8.1070528008   36.0587883184    0.0000000000
   292      1    8.1174926888   36.0692024365    4.0065188465
   293      1    8.1279334884   36.0796127483    8.0130376930
   294      1    8.1383733775   36.0900268676   12.0195569803
   295      1    8.1488132643   36.1004409844   16.0260753460
   296      1    8.1592531036   36.1108512975   20.0325946733
   297      1    8.1696939544   36.1212654169   24.0391140006
   298      1    8.1801338387   36.1316795312   28.0456314048
   299      1    8.1905736879   36.1420936506   32.0521507321
   300      1    8.2010135672   36.1525039637   36.0586700594
   301      1   12.0196390231    0.0000000000    0.0000000000
   302      1   12.0300788680    0.0104129562    4.0065188465
   303      1   12.0405197146    0.0208259124    8.0130376930
   304      1   12.0509596007    0.0312388697   12.0195569803
   305      1   12.0613994444    0.0416518247   16.0260753460
   306      1   12.0718393306    0.0520647821   20.0325946733
   307      1   12.0822801784    0.0624777396   24.0391140006
   308      1   12.0927200196    0.0728906920   28.0456314048
   309      1   12.1031599058    0.0833036495   32.0521507321
   310      1   12.1135997920    0.0937166069   36.0586700594
   311      1   12.0300789076    4.0065321778    0.0000000000
   312      1   12.0405187531    4.0169453744    4.0065188465
   313      1   12.0509595989    4.0273580502    8.0130376930
   314      1   12.0613994455    4.0377712078   12.0195569803
   315      1   12.0718393286    4.0481839224   16.0260753460
   316      1   12.0822792154    4.0585970801   20.0325946733
   317      1   12.0927200225    4.0690097972   24.0391140006
   318      1   12.1031599042    4.0794229500   28.0456314048
   319      1   12.1135997897    4.0898356270   32.0521507321
   320      1   12.1240396365    4.1002488248   36.0586700594
   321      1   12.0405197136    8.0130643957    0.0000000000
   322      1   12.0509595991    8.0234775522    4.0065188465
   323      1   12.0614004061    8.0338907088    8.0130376930
   324      1   12.0718402904    8.0443029449   12.0195569803
   325      1   12.0822801747    8.0547161002   16.0260753460
   326      1   12.0927200214    8.0651292980   20.0325946733
   327      1   12.1031608698    8.0755424558   24.0391140006
   328      1   12.1136007490    8.0859546470   28.0456314048
   329      1   12.1240405958    8.0963678449   32.0521507321
   330      1   12.1344804826    8.1067810026   36.0586700594
   331      1   12.0509595993   12.0195970543    0.0000000000
   332      1   12.0613994448   12.0300102109    4.0065188465
   333      1   12.0718402920   12.0404234074    8.0130376930
   334      1   12.0822801761   12.0508356035   12.0195569803
   335      1   12.0927200204   12.0612487989   16.0260753460
   336      1   12.1031599072   12.0716619567   20.0325946733
   337      1   12.1136007154   12.0820751144   24.0391140006
   338      1   12.1240405948   12.0924873457   28.0456314048
   339      1   12.1344804815   12.1029005035   32.0521507321
   340      1   12.1449203683   12.1133136612   36.0586700594
   341      1   12.0613994425   16.0261287514    0.0000000000
   342      1   12.0718393256   16.0365409864    4.0065188465
   343      1   12.0822801752   16.0469551045    8.0130376930
   344      1   12.0927200194   16.0573673407   12.0195569803
   345      1   12.1031599061   16.0677814575   16.0260753460
   346      1   12.1135997904   16.0781936537   20.0325946733
   347      1   12.1240405962   16.0886058900   24.0391140006
   348      1   12.1344804805   16.0990200043   28.0456314048
   349      1   12.1449203647   16.1094322005   32.0521507321
   350      1   12.1553602090   16.1198444368   36.0586700594
   351      1   12.0718393283   20.0326614501    0.0000000000
   352      1   12.0822792113   20.0430736450    4.0065188465
   353      1   12.0927200208   20.0534877631    8.0130376930
   354      1   12.1031599051   20.0638999993   12.0195569803
   355      1   12.1135997918   20.0743141161   16.0260753460
   356      1   12.1240396361   20.0847263524   20.0325946733
   357      1   12.1344804819   20.0951385486   24.0391140006
   358      1   12.1449203662   20.1055526629   28.0456314048
   359      1   12.1553602105   20.1159648992   32.0521507321
   360      1   12.1658000947   20.1263770954   36.0586700594
   361      1   12.0822801756   24.0391941087    0.0000000000
   362      1   12.0927200185   24.0496063036    4.0065188465
   363      1   12.1031608682   24.0600204618    8.0130376930
   364      1   12.1136007123   24.0704326579   12.0195569803
   365      1   12.1240405991   24.0808467747   16.0260753460
   366      1   12.1344804834   24.0912590110   20.0325946733
   367      1   12.1449212892   24.1016712072   24.0391140006
   368      1   12.1553611735   24.1120853616   28.0456314048
   369      1   12.1658010578   24.1224975578   32.0521507321
   370      1   12.1762409021   24.1329097941   36.0586700594
   371      1   12.0927200163   28.0457248842    0.0000000000
   372      1   12.1031598993   28.0561370792    4.0065188465
   373      1   12.1136007489   28.0665511973    8.0130376930
   374      1   12.1240405931   28.0769634334   12.0195569803
   375      1   12.1344804799   28.0873775503   16.0260753460
   376      1   12.1449203641   28.0977897465   20.0325946733
   377      1   12.1553611700   28.1082019827   24.0391140006
   378      1   12.1658010542   28.1186160971   28.0456314048
   379      1   12.1762409386   28.1290283333   32.0521507321
   380      1   12.1866807828   28.1394405295   36.0586700594
   381      1   12.1031599020   32.0522575428    0.0000000000
   382      1   12.1135997901   32.0626716609    4.0065188465
   383      1   12.1240405897   32.0730819728    8.0130376930
   384      1   12.1344804788   32.0834960920   12.0195569803
   385      1   12.1449203656   32.0939102089   16.0260753460
   386      1   12.1553602049   32.1043205220   20.0325946733
   387      1   12.1658010557   32.1147346413   24.0391140006
   388      1   12.1762409399   32.1251487557   28.0456314048
   389      1   12.1866807892   32.1355629151   32.0521507321
   390      1   12.1971206685   32.1459731882   36.0586700594
   391      1   12.1135997829   36.0587883184    0.0000000000
   392      1   12.1240396308   36.0692024365    4.0065188465
   393      1   12.1344804705   36.0796127483    8.0130376930
   394      1   12.1449203596   36.0900268676   12.0195569803
   395      1   12.1553602063   36.1004409844   16.0260753460
   396      1   12.1658000857   36.1108512975   20.0325946733
   397      1   12.1762409365   36.1212654169   24.0391140006
   398      1   12.1866807807   36.1316795312   28.0456314048
   399      1   12.1971206699   36.1420936506   32.0521507321
   400      1   12.2075605493   36.1525039637   36.0586700594
   401      1   16.0261840820    0.0000000000    0.0000000000
   402      1   16.0366248885    0.0104129562    4.0065188465
   403      1   16.0470638119    0.0208259124    8.0130376930
   404      1   16.0575046596    0.0312388697   12.0195569803
   405      1   16.0679454649    0.0416518247   16.0260753460
   406      1   16.0783843895    0.0520647821   20.0325946733
   407      1   16.0888252373    0.0624777396   24.0391140006
   408      1   16.0992641570    0.0728906920   28.0456314048
   409      1   16.1097049647    0.0833036495   32.0521507321
   410      1   16.1201458126    0.0937166069   36.0586700594
   411      1   16.0366249281    4.0065321778    0.0000000000
   412      1   16.0470657352    4.0169453744    4.0065188465
   413      1   16.0575046579    4.0273580502    8.0130376930
   414      1   16.0679454660    4.0377712078   12.0195569803
   415      1   16.0783863107    4.0481839224   16.0260753460
   416      1   16.0888252359    4.0585970801   20.0325946733
   417      1   16.0992660430    4.0690097972   24.0391140006
   418      1   16.1097049632    4.0794229500   28.0456314048
   419      1   16.1201458103    4.0898356270   32.0521507321
   420      1   16.1305866186    4.1002488248   36.0586700594
   421      1   16.0470638110    8.0130643957    0.0000000000
   422      1   16.0575046581    8.0234775522    4.0065188465
   423      1   16.0679435820    8.0338907088    8.0130376930
   424      1   16.0783843878    8.0443029449   12.0195569803
   425      1   16.0888252336    8.0547161002   16.0260753460
   426      1   16.0992641589    8.0651292980   20.0325946733
   427      1   16.1097049671    8.0755424558   24.0391140006
   428      1   16.1201438848    8.0859546470   28.0456314048
   429      1   16.1305847332    8.0963678449   32.0521507321
   430      1   16.1410255415    8.1067810026   36.0586700594
   431      1   16.0575046583   12.0195970543    0.0000000000
   432      1   16.0679454653   12.0300102109    4.0065188465
   433      1   16.0783843893   12.0404234074    8.0130376930
   434      1   16.0888252351   12.0508356035   12.0195569803
   435      1   16.0992660409   12.0612487989   16.0260753460
   436      1   16.1097049661   12.0716619567   20.0325946733
   437      1   16.1201458144   12.0820751144   24.0391140006
   438      1   16.1305847322   12.0924873457   28.0456314048
   439      1   16.1410255405   12.1029005035   32.0521507321
   440      1   16.1514663888   12.1133136612   36.0586700594
   441      1   16.0679454630   16.0261287514    0.0000000000
   442      1   16.0783863077   16.0365409864    4.0065188465
   443      1   16.0888252341   16.0469551045    8.0130376930
   444      1   16.0992660399   16.0573673407   12.0195569803
   445      1   16.1097068882   16.0677814575   16.0260753460
   446      1   16.1201458109   16.0781936537   20.0325946733
   447      1   16.1305866167   16.0886058900   24.0391140006
   448      1   16.1410255394   16.0990200043   28.0456314048
   449      1   16.1514663852   16.1094322005   32.0521507321
   450      1   16.1619071911   16.1198444368   36.0586700594
   451      1   16.0783843872   20.0326614501    0.0000000000
   452      1   16.0888252318   20.0430736450    4.0065188465
   453      1   16.0992641583   20.0534877631    8.0130376930
   454      1   16.1097049640   20.0638999993   12.0195569803
   455      1   16.1201458123   20.0743141161   16.0260753460
   456      1   16.1305847351   20.0847263524   20.0325946733
   457      1   16.1410255409   20.0951385486   24.0391140006
   458      1   16.1514644636   20.1055526629   28.0456314048
   459      1   16.1619052694   20.1159648992   32.0521507321
   460      1   16.1723461153   20.1263770954   36.0586700594
   461      1   16.0888252345   24.0391941087    0.0000000000
   462      1   16.0992660390   24.0496063036    4.0065188465
   463      1   16.1097049656   24.0600204618    8.0130376930
   464      1   16.1201458113   24.0704326579   12.0195569803
   465      1   16.1305866196   24.0808467747   16.0260753460
   466      1   16.1410255423   24.0912590110   20.0325946733
   467      1   16.1514663882   24.1016712072   24.0391140006
   468      1   16.1619052709   24.1120853616   28.0456314048
   469      1   16.1723461167   24.1224975578   32.0521507321
   470      1   16.1827869226   24.1329097941   36.0586700594
   471      1   16.0992641538   28.0457248842    0.0000000000
   472      1   16.1097049583   28.0561370792    4.0065188465
   473      1   16.1201438847   28.0665511973    8.0130376930
   474      1   16.1305847305   28.0769634334   12.0195569803
   475      1   16.1410255388   28.0873775503   16.0260753460
   476      1   16.1514644615   28.0977897465   20.0325946733
   477      1   16.1619053074   28.1082019827   24.0391140006
   478      1   16.1723441900   28.1186160971   28.0456314048
   479      1   16.1827850359   28.1290283333   32.0521507321
   480      1   16.1932258417   28.1394405295   36.0586700594