7.969122344740003250e+00 0.000000000000000000e+00 0.000000000000000000e+00 0.000000000000000000e+00 7.969122344740003250e+00 0.000000000000000000e+00 0.000000000000000000e+00 0.000000000000000000e+00 7.969122344740003250e+00
7.974813831910089412e+00 0.000000000000000000e+00 0.000000000000000000e+00 0.000000000000000000e+00 7.974813831910089412e+00 0.000000000000000000e+00 0.000000000000000000e+00 0.000000000000000000e+00 7.974813831910089412e+00
7.993095891282050225e+00 0.000000000000000000e+00 0.000000000000000000e+00 0.000000000000000000e+00 7.993095891282050225e+00 0.000000000000000000e+00 0.000000000000000000e+00 0.000000000000000000e+00 7.993095891282050225e+00
8.025372740923783610e+00 0.000000000000000000e+00 0.000000000000000000e+00 0.000000000000000000e+00 8.025372740923783610e+00 0.000000000000000000e+00 0.000000000000000000e+00 0.000000000000000000e+00 8.025372740923783610e+00
8.062495294280187963e+00 0.000000000000000000e+00 0.000000000000000000e+00 0.000000000000000000e+00 8.062495294280187963e+00 0.000000000000000000e+00 0.000000000000000000e+00 0.000000000000000000e+00 8.062495294280187963e+00
8.097545342305556559e+00 0.000000000000000000e+00 0.000000000000000000e+00 0.000000000000000000e+00 8.097545342305556559e+00 0.000000000000000000e+00 0.000000000000000000e+00 0.000000000000000000e+00 8.097545342305556559e+00
8.128804144095479245e+00 0.000000000000000000e+00 0.000000000000000000e+00 0.000000000000000000e+00 8.128804144095479245e+00 0.000000000000000000e+00 0.000000000000000000e+00 0.000000000000000000e+00 8.128804144095479245e+00
8.155470868567784137e+00 0.000000000000000000e+00 0.000000000000000000e+00 0.000000000000000000e+00 8.155470868567784137e+00 0.000000000000000000e+00 0.000000000000000000e+00 0.000000000000000000e+00 8.155470868567784137e+00
8.172895437071719726e+00 0.000000000000000000e+00 0.000000000000000000e+00 0.000000000000000000e+00 8.172895437071719726e+00 0.000000000000000000e+00 0.000000000000000000e+00 0.000000000000000000e+00 8.172895437071719726e+00
8.177875397786568357e+00 0.000000000000000000e+00 0.000000000000000000e+00 0.000000000000000000e+00 8.177875397786568357e+00 0.000000000000000000e+00 0.000000000000000000e+00 0.000000000000000000e+00 8.177875397786568357e+00
8.171895714662422705e+00 0.000000000000000000e+00 0.000000000000000000e+00 0.000000000000000000e+00 8.171895714662422705e+00 0.000000000000000000e+00 0.000000000000000000e+00 0.000000000000000000e+00 8.171895714662422705e+00
8.157612931268426237e+00 0.000000000000000000e+00 0.000000000000000000e+00 0.000000000000000000e+00 8.157612931268426237e+00 0.000000000000000000e+00 0.000000000000000000e+00 0.000000000000000000e+00 8.157612931268426237e+00
8.135912296189816928e+00 0.000000000000000000e+00 0.000000000000000000e+00 0.000000000000000000e+00 8.135912296189816928e+00 0.000000000000000000e+00 0.000000000000000000e+00 0.000000000000000000e+00 8.135912296189816928e+00
8.109199086055097538e+00 0.000000000000000000e+00 0.000000000000000000e+00 0.000000000000000000e+00 8.109199086055097538e+00 0.000000000000000000e+00 0.000000000000000000e+00 0.000000000000000000e+00 8.109199086055097538e+00
8.080866450755278763e+00 0.000000000000000000e+00 0.000000000000000000e+00 0.000000000000000000e+00 8.080866450755278763e+00 0.000000000000000000e+00 0.000000000000000000e+00 0.000000000000000000e+00 8.080866450755278763e+00
8.054469516982978305e+00 0.000000000000000000e+00 0.000000000000000000e+00 0.000000000000000000e+00 8.054469516982978305e+00 0.000000000000000000e+00 0.000000000000000000e+00 0.000000000000000000e+00 8.054469516982978305e+00
8.032038621288968727e+00 0.000000000000000000e+00 0.000000000000000000e+00 0.000000000000000000e+00 8.032038621288968727e+00 0.000000000000000000e+00 0.000000000000000000e+00 0.000000000000000000e+00 8.032038621288968727e+00
8.014838415363534807e+00 0.000000000000000000e+00 0.000000000000000000e+00 0.000000000000000000e+00 8.014838415363534807e+00 0.000000000000000000e+00 0.000000000000000000e+00 0.000000000000000000e+00 8.014838415363534807e+00
8.005296064061180772e+00 0.000000000000000000e+00 0.000000000000000000e+00 0.000000000000000000e+00 8.005296064061180772e+00 0.000000000000000000e+00 0.000000000000000000e+00 0.000000000000000000e+00 8.005296064061180772e+00
8.004904929303670258e+00 0.000000000000000000e+00 0.000000000000000000e+00 0.000000000000000000e+00 8.004904929303670258e+00 0.000000000000000000e+00 0.000000000000000000e+00 0.000000000000000000e+00 8.004904929303670258e+00
8.012118665868230849e+00 0.000000000000000000e+00 0.000000000000000000e+00 0.000000000000000000e+00 8.012118665868230849e+00 0.000000000000000000e+00 0.000000000000000000e+00 0.000000000000000000e+00 8.012118665868230849e+00
8.026560209980353022e+00 0.000000000000000000e+00 0.000000000000000000e+00 0.000000000000000000e+00 8.026560209980353022e+00 0.000000000000000000e+00 0.000000000000000000e+00 0.000000000000000000e+00 8.026560209980353022e+00
8.048157709250645553e+00 0.000000000000000000e+00 0.000000000000000000e+00 0.000000000000000000e+00 8.048157709250645553e+00 0.000000000000000000e+00 0.000000000000000000e+00 0.000000000000000000e+00 8.048157709250645553e+00
8.073519188592332085e+00 0.000000000000000000e+00 0.000000000000000000e+00 0.000000000000000000e+00 8.073519188592332085e+00 0.000000000000000000e+00 0.000000000000000000e+00 0.000000000000000000e+00 8.073519188592332085e+00
8.098549677526300172e+00 0.000000000000000000e+00 0.000000000000000000e+00 0.000000000000000000e+00 8.098549677526300172e+00 0.000000000000000000e+00 0.000000000000000000e+00 0.000000000000000000e+00 8.098549677526300172e+00
8.118970046734506951e+00 0.000000000000000000e+00 0.000000000000000000e+00 0.000000000000000000e+00 8.118970046734506951e+00 0.000000000000000000e+00 0.000000000000000000e+00 0.000000000000000000e+00 8.118970046734506951e+00
8.131517267688924022e+00 0.000000000000000000e+00 0.000000000000000000e+00 0.000000000000000000e+00 8.131517267688924022e+00 0.000000000000000000e+00 0.000000000000000000e+00 0.000000000000000000e+00 8.131517267688924022e+00
8.136128002145147420e+00 0.000000000000000000e+00 0.000000000000000000e+00 0.000000000000000000e+00 8.136128002145147420e+00 0.000000000000000000e+00 0.000000000000000000e+00 0.000000000000000000e+00 8.136128002145147420e+00
8.134106067574011334e+00 0.000000000000000000e+00 0.000000000000000000e+00 0.000000000000000000e+00 8.134106067574011334e+00 0.000000000000000000e+00 0.000000000000000000e+00 0.000000000000000000e+00 8.134106067574011334e+00
8.125220908802662123e+00 0.000000000000000000e+00 0.000000000000000000e+00 0.000000000000000000e+00 8.125220908802662123e+00 0.000000000000000000e+00 0.000000000000000000e+00 0.000000000000000000e+00 8.125220908802662123e+00
8.109936842040353255e+00 0.000000000000000000e+00 0.000000000000000000e+00 0.000000000000000000e+00 8.109936842040353255e+00 0.000000000000000000e+00 0.000000000000000000e+00 0.000000000000000000e+00 8.109936842040353255e+00
8.090628708957781967e+00 0.000000000000000000e+00 0.000000000000000000e+00 0.000000000000000000e+00 8.090628708957781967e+00 0.000000000000000000e+00 0.000000000000000000e+00 0.000000000000000000e+00 8.090628708957781967e+00
8.071933203986736416e+00 0.000000000000000000e+00 0.000000000000000000e+00 0.000000000000000000e+00 8.071933203986736416e+00 0.000000000000000000e+00 0.000000000000000000e+00 0.000000000000000000e+00 8.071933203986736416e+00
8.056279109657419113e+00 0.000000000000000000e+00 0.000000000000000000e+00 0.000000000000000000e+00 8.056279109657419113e+00 0.000000000000000000e+00 0.000000000000000000e+00 0.000000000000000000e+00 8.056279109657419113e+00
8.042847446176118353e+00 0.000000000000000000e+00 0.000000000000000000e+00 0.000000000000000000e+00 8.042847446176118353e+00 0.000000000000000000e+00 0.000000000000000000e+00 0.000000000000000000e+00 8.042847446176118353e+00
8.032686649390724298e+00 0.000000000000000000e+00 0.000000000000000000e+00 0.000000000000000000e+00 8.032686649390724298e+00 0.000000000000000000e+00 0.000000000000000000e+00 0.000000000000000000e+00 8.032686649390724298e+00
8.028640564098209254e+00 0.000000000000000000e+00 0.000000000000000000e+00 0.000000000000000000e+00 8.028640564098209254e+00 0.000000000000000000e+00 0.000000000000000000e+00 0.000000000000000000e+00 8.028640564098209254e+00
8.030512694002666763e+00 0.000000000000000000e+00 0.000000000000000000e+00 0.000000000000000000e+00 8.030512694002666763e+00 0.000000000000000000e+00 0.000000000000000000e+00 0.000000000000000000e+00 8.030512694002666763e+00
8.036211174023499382e+00 0.000000000000000000e+00 0.000000000000000000e+00 0.000000000000000000e+00 8.036211174023499382e+00 0.000000000000000000e+00 0.000000000000000000e+00 0.000000000000000000e+00 8.036211174023499382e+00
8.045521968771760513e+00 0.000000000000000000e+00 0.000000000000000000e+00 0.000000000000000000e+00 8.045521968771760513e+00 0.000000000000000000e+00 0.000000000000000000e+00 0.000000000000000000e+00 8.045521968771760513e+00
8.059443005175083385e+00 0.000000000000000000e+00 0.000000000000000000e+00 0.000000000000000000e+00 8.059443005175083385e+00 0.000000000000000000e+00 0.000000000000000000e+00 0.000000000000000000e+00 8.059443005175083385e+00
8.078187953397517163e+00 0.000000000000000000e+00 0.000000000000000000e+00 0.000000000000000000e+00 8.078187953397517163e+00 0.000000000000000000e+00 0.000000000000000000e+00 0.000000000000000000e+00 8.078187953397517163e+00
8.098261819942294437e+00 0.000000000000000000e+00 0.000000000000000000e+00 0.000000000000000000e+00 8.098261819942294437e+00 0.000000000000000000e+00 0.000000000000000000e+00 0.000000000000000000e+00 8.098261819942294437e+00
8.114255052353435360e+00 0.000000000000000000e+00 0.000000000000000000e+00 0.000000000000000000e+00 8.114255052353435360e+00 0.000000000000000000e+00 0.000000000000000000e+00 0.000000000000000000e+00 8.114255052353435360e+00
8.123373472440061249e+00 0.000000000000000000e+00 0.000000000000000000e+00 0.000000000000000000e+00 8.123373472440061249e+00 0.000000000000000000e+00 0.000000000000000000e+00 0.000000000000000000e+00 8.123373472440061249e+00
8.125917473059027785e+00 0.000000000000000000e+00 0.000000000000000000e+00 0.000000000000000000e+00 8.125917473059027785e+00 0.000000000000000000e+00 0.000000000000000000e+00 0.000000000000000000e+00 8.125917473059027785e+00
8.123802622028748033e+00 0.000000000000000000e+00 0.000000000000000000e+00 0.000000000000000000e+00 8.123802622028748033e+00 0.000000000000000000e+00 0.000000000000000000e+00 0.000000000000000000e+00 8.123802622028748033e+00
8.118544668281113985e+00 0.000000000000000000e+00 0.000000000000000000e+00 0.000000000000000000e+00 8.118544668281113985e+00 0.000000000000000000e+00 0.000000000000000000e+00 0.000000000000000000e+00 8.118544668281113985e+00
8.109948439134596399e+00 0.000000000000000000e+00 0.000000000000000000e+00 0.000000000000000000e+00 8.109948439134596399e+00 0.000000000000000000e+00 0.000000000000000000e+00 0.000000000000000000e+00 8.109948439134596399e+00
8.097668753115167206e+00 0.000000000000000000e+00 0.000000000000000000e+00 0.000000000000000000e+00 8.097668753115167206e+00 0.000000000000000000e+00 0.000000000000000000e+00 0.000000000000000000e+00 8.097668753115167206e+00
8.083421123226814942e+00 0.000000000000000000e+00 0.000000000000000000e+00 0.000000000000000000e+00 8.083421123226814942e+00 0.000000000000000000e+00 0.000000000000000000e+00 0.000000000000000000e+00 8.083421123226814942e+00
8.070974916389928921e+00 0.000000000000000000e+00 0.000000000000000000e+00 0.000000000000000000e+00 8.070974916389928921e+00 0.000000000000000000e+00 0.000000000000000000e+00 0.000000000000000000e+00 8.070974916389928921e+00
8.061816846594537012e+00 0.000000000000000000e+00 0.000000000000000000e+00 0.000000000000000000e+00 8.061816846594537012e+00 0.000000000000000000e+00 0.000000000000000000e+00 0.000000000000000000e+00 8.061816846594537012e+00
8.055634928086522706e+00 0.000000000000000000e+00 0.000000000000000000e+00 0.000000000000000000e+00 8.055634928086522706e+00 0.000000000000000000e+00 0.000000000000000000e+00 0.000000000000000000e+00 8.055634928086522706e+00
8.052306754208490958e+00 0.000000000000000000e+00 0.000000000000000000e+00 0.000000000000000000e+00 8.052306754208490958e+00 0.000000000000000000e+00 0.000000000000000000e+00 0.000000000000000000e+00 8.052306754208490958e+00
8.051730555323265648e+00 0.000000000000000000e+00 0.000000000000000000e+00 0.000000000000000000e+00 8.051730555323265648e+00 0.000000000000000000e+00 0.000000000000000000e+00 0.000000000000000000e+00 8.051730555323265648e+00
8.055052348385027372e+00 0.000000000000000000e+00 0.000000000000000000e+00 0.000000000000000000e+00 8.055052348385027372e+00 0.000000000000000000e+00 0.000000000000000000e+00 0.000000000000000000e+00 8.055052348385027372e+00
8.063435422535526698e+00 0.000000000000000000e+00 0.000000000000000000e+00 0.000000000000000000e+00 8.063435422535526698e+00 0.000000000000000000e+00 0.000000000000000000e+00 0.000000000000000000e+00 8.063435422535526698e+00
8.074111474339957795e+00 0.000000000000000000e+00 0.000000000000000000e+00 0.000000000000000000e+00 8.074111474339957795e+00 0.000000000000000000e+00 0.000000000000000000e+00 0.000000000000000000e+00 8.074111474339957795e+00
8.085207811526098354e+00 0.000000000000000000e+00 0.000000000000000000e+00 0.000000000000000000e+00 8.085207811526098354e+00 0.000000000000000000e+00 0.000000000000000000e+00 0.000000000000000000e+00 8.085207811526098354e+00
8.097060222436052612e+00 0.000000000000000000e+00 0.000000000000000000e+00 0.000000000000000000e+00 8.097060222436052612e+00 0.000000000000000000e+00 0.000000000000000000e+00 0.000000000000000000e+00 8.097060222436052612e+00
8.107796409568328144e+00 0.000000000000000000e+00 0.000000000000000000e+00 0.000000000000000000e+00 8.107796409568328144e+00 0.000000000000000000e+00 0.000000000000000000e+00 0.000000000000000000e+00 8.107796409568328144e+00
8.114216965224674283e+00 0.000000000000000000e+00 0.000000000000000000e+00 0.000000000000000000e+00 8.114216965224674283e+00 0.000000000000000000e+00 0.000000000000000000e+00 0.000000000000000000e+00 8.114216965224674283e+00
8.115339048372625541e+00 0.000000000000000000e+00 0.000000000000000000e+00 0.000000000000000000e+00 8.115339048372625541e+00 0.000000000000000000e+00 0.000000000000000000e+00 0.000000000000000000e+00 8.115339048372625541e+00
8.113387162543268971e+00 0.000000000000000000e+00 0.000000000000000000e+00 0.000000000000000000e+00 8.113387162543268971e+00 0.000000000000000000e+00 0.000000000000000000e+00 0.000000000000000000e+00 8.113387162543268971e+00
8.111105978009454986e+00 0.000000000000000000e+00 0.000000000000000000e+00 0.000000000000000000e+00 8.111105978009454986e+00 0.000000000000000000e+00 0.000000000000000000e+00 0.000000000000000000e+00 8.111105978009454986e+00
8.107689015601518889e+00 0.000000000000000000e+00 0.000000000000000000e+00 0.000000000000000000e+00 8.107689015601518889e+00 0.000000000000000000e+00 0.000000000000000000e+00 0.000000000000000000e+00 8.107689015601518889e+00
8.102203503092781034e+00 0.000000000000000000e+00 0.000000000000000000e+00 0.000000000000000000e+00 8.102203503092781034e+00 0.000000000000000000e+00 0.000000000000000000e+00 0.000000000000000000e+00 8.102203503092781034e+00
8.097444024941770735e+00 0.000000000000000000e+00 0.000000000000000000e+00 0.000000000000000000e+00 8.097444024941770735e+00 0.000000000000000000e+00 0.000000000000000000e+00 0.000000000000000000e+00 8.097444024941770735e+00
8.095213683730285936e+00 0.000000000000000000e+00 0.000000000000000000e+00 0.000000000000000000e+00 8.095213683730285936e+00 0.000000000000000000e+00 0.000000000000000000e+00 0.000000000000000000e+00 8.095213683730285936e+00
8.094648632639890096e+00 0.000000000000000000e+00 0.000000000000000000e+00 0.000000000000000000e+00 8.094648632639890096e+00 0.000000000000000000e+00 0.000000000000000000e+00 0.000000000000000000e+00 8.094648632639890096e+00
8.093984323925850433e+00 0.000000000000000000e+00 0.000000000000000000e+00 0.000000000000000000e+00 8.093984323925850433e+00 0.000000000000000000e+00 0.000000000000000000e+00 0.000000000000000000e+00 8.093984323925850433e+00
8.090657226142628389e+00 0.000000000000000000e+00 0.000000000000000000e+00 0.000000000000000000e+00 8.090657226142628389e+00 0.000000000000000000e+00 0.000000000000000000e+00 0.000000000000000000e+00 8.090657226142628389e+00
8.083501079202562778e+00 0.000000000000000000e+00 0.000000000000000000e+00 0.000000000000000000e+00 8.083501079202562778e+00 0.000000000000000000e+00 0.000000000000000000e+00 0.000000000000000000e+00 8.083501079202562778e+00
8.074123534716534323e+00 0.000000000000000000e+00 0.000000000000000000e+00 0.000000000000000000e+00 8.074123534716534323e+00 0.000000000000000000e+00 0.000000000000000000e+00 0.000000000000000000e+00 8.074123534716534323e+00
8.065687693044779394e+00 0.000000000000000000e+00 0.000000000000000000e+00 0.000000000000000000e+00 8.065687693044779394e+00 0.000000000000000000e+00 0.000000000000000000e+00 0.000000000000000000e+00 8.065687693044779394e+00
8.061830831087037907e+00 0.000000000000000000e+00 0.000000000000000000e+00 0.000000000000000000e+00 8.061830831087037907e+00 0.000000000000000000e+00 0.000000000000000000e+00 0.000000000000000000e+00 8.061830831087037907e+00
8.063811109178960379e+00 0.000000000000000000e+00 0.000000000000000000e+00 0.000000000000000000e+00 8.063811109178960379e+00 0.000000000000000000e+00 0.000000000000000000e+00 0.000000000000000000e+00 8.063811109178960379e+00
8.067274027805359182e+00 0.000000000000000000e+00 0.000000000000000000e+00 0.000000000000000000e+00 8.067274027805359182e+00 0.000000000000000000e+00 0.000000000000000000e+00 0.000000000000000000e+00 8.067274027805359182e+00
8.071045006551470280e+00 0.000000000000000000e+00 0.000000000000000000e+00 0.000000000000000000e+00 8.071045006551470280e+00 0.000000000000000000e+00 0.000000000000000000e+00 0.000000000000000000e+00 8.071045006551470280e+00
8.076153900428138854e+00 0.000000000000000000e+00 0.000000000000000000e+00 0.000000000000000000e+00 8.076153900428138854e+00 0.000000000000000000e+00 0.000000000000000000e+00 0.000000000000000000e+00 8.076153900428138854e+00
8.082845138613356184e+00 0.000000000000000000e+00 0.000000000000000000e+00 0.000000000000000000e+00 8.082845138613356184e+00 0.000000000000000000e+00 0.000000000000000000e+00 0.000000000000000000e+00 8.082845138613356184e+00
8.090867382064907076e+00 0.000000000000000000e+00 0.000000000000000000e+00 0.000000000000000000e+00 8.090867382064907076e+00 0.000000000000000000e+00 0.000000000000000000e+00 0.000000000000000000e+00 8.090867382064907076e+00
8.098861631896596691e+00 0.000000000000000000e+00 0.000000000000000000e+00 0.000000000000000000e+00 8.098861631896596691e+00 0.000000000000000000e+00 0.000000000000000000e+00 0.000000000000000000e+00 8.098861631896596691e+00
8.105622812704204705e+00 0.000000000000000000e+00 0.000000000000000000e+00 0.000000000000000000e+00 8.105622812704204705e+00 0.000000000000000000e+00 0.000000000000000000e+00 0.000000000000000000e+00 8.105622812704204705e+00
8.109411024367117804e+00 0.000000000000000000e+00 0.000000000000000000e+00 0.000000000000000000e+00 8.109411024367117804e+00 0.000000000000000000e+00 0.000000000000000000e+00 0.000000000000000000e+00 8.109411024367117804e+00
8.109165849461419384e+00 0.000000000000000000e+00 0.000000000000000000e+00 0.000000000000000000e+00 8.109165849461419384e+00 0.000000000000000000e+00 0.000000000000000000e+00 0.000000000000000000e+00 8.109165849461419384e+00
8.104595001175598057e+00 0.000000000000000000e+00 0.000000000000000000e+00 0.000000000000000000e+00 8.104595001175598057e+00 0.000000000000000000e+00 0.000000000000000000e+00 0.000000000000000000e+00 8.104595001175598057e+00
8.096395847236397714e+00 0.000000000000000000e+00 0.000000000000000000e+00 0.000000000000000000e+00 8.096395847236397714e+00 0.000000000000000000e+00 0.000000000000000000e+00 0.000000000000000000e+00 8.096395847236397714e+00
8.085443359501214289e+00 0.000000000000000000e+00 0.000000000000000000e+00 0.000000000000000000e+00 8.085443359501214289e+00 0.000000000000000000e+00 0.000000000000000000e+00 0.000000000000000000e+00 8.085443359501214289e+00
8.074037035035452448e+00 0.000000000000000000e+00 0.000000000000000000e+00 0.000000000000000000e+00 8.074037035035452448e+00 0.000000000000000000e+00 0.000000000000000000e+00 0.000000000000000000e+00 8.074037035035452448e+00
8.063544942940094273e+00 0.000000000000000000e+00 0.000000000000000000e+00 0.000000000000000000e+00 8.063544942940094273e+00 0.000000000000000000e+00 0.000000000000000000e+00 0.000000000000000000e+00 8.063544942940094273e+00
8.054897080084796102e+00 0.000000000000000000e+00 0.000000000000000000e+00 0.000000000000000000e+00 8.054897080084796102e+00 0.000000000000000000e+00 0.000000000000000000e+00 0.000000000000000000e+00 8.054897080084796102e+00
8.051073119215667262e+00 0.000000000000000000e+00 0.000000000000000000e+00 0.000000000000000000e+00 8.051073119215667262e+00 0.000000000000000000e+00 0.000000000000000000e+00 0.000000000000000000e+00 8.051073119215667262e+00
8.053181220308802679e+00 0.000000000000000000e+00 0.000000000000000000e+00 0.000000000000000000e+00 8.053181220308802679e+00 0.000000000000000000e+00 0.000000000000000000e+00 0.000000000000000000e+00 8.053181220308802679e+00
8.058584979617137378e+00 0.000000000000000000e+00 0.000000000000000000e+00 0.000000000000000000e+00 8.058584979617137378e+00 0.000000000000000000e+00 0.000000000000000000e+00 0.000000000000000000e+00 8.058584979617137378e+00
8.064503162546293069e+00 0.000000000000000000e+00 0.000000000000000000e+00 0.000000000000000000e+00 8.064503162546293069e+00 0.000000000000000000e+00 0.000000000000000000e+00 0.000000000000000000e+00 8.064503162546293069e+00
8.070339990975751832e+00 0.000000000000000000e+00 0.000000000000000000e+00 0.000000000000000000e+00 8.070339990975751832e+00 0.000000000000000000e+00 0.000000000000000000e+00 0.000000000000000000e+00 8.070339990975751832e+00
8.076369567392694293e+00 0.000000000000000000e+00 0.000000000000000000e+00 0.000000000000000000e+00 8.076369567392694293e+00 0.000000000000000000e+00 0.000000000000000000e+00 0.000000000000000000e+00 8.076369567392694293e+00
8.082040809241318513e+00 0.000000000000000000e+00 0.000000000000000000e+00 0.000000000000000000e+00 8.082040809241318513e+00 0.000000000000000000e+00 0.000000000000000000e+00 0.000000000000000000e+00 8.082040809241318513e+00
8.086430399974512184e+00 0.000000000000000000e+00 0.000000000000000000e+00 0.000000000000000000e+00 8.086430399974512184e+00 0.000000000000000000e+00 0.000000000000000000e+00 0.000000000000000000e+00 8.086430399974512184e+00
8.088427481462709068e+00 0.000000000000000000e+00 0.000000000000000000e+00 0.000000000000000000e+00 8.088427481462709068e+00 0.000000000000000000e+00 0.000000000000000000e+00 0.000000000000000000e+00 8.088427481462709068e+00
8.087002149760348146e+00 0.000000000000000000e+00 0.000000000000000000e+00 0.000000000000000000e+00 8.087002149760348146e+00 0.000000000000000000e+00 0.000000000000000000e+00 0.000000000000000000e+00 8.087002149760348146e+00
8.082827624605171124e+00 0.000000000000000000e+00 0.000000000000000000e+00 0.000000000000000000e+00 8.082827624605171124e+00 0.000000000000000000e+00 0.000000000000000000e+00 0.000000000000000000e+00 8.082827624605171124e+00
8.078142738138788914e+00 0.000000000000000000e+00 0.000000000000000000e+00 0.000000000000000000e+00 8.078142738138788914e+00 0.000000000000000000e+00 0.000000000000000000e+00 0.000000000000000000e+00 8.078142738138788914e+00
8.074426893821307516e+00 0.000000000000000000e+00 0.000000000000000000e+00 0.000000000000000000e+00 8.074426893821307516e+00 0.000000000000000000e+00 0.000000000000000000e+00 0.000000000000000000e+00 8.074426893821307516e+00
8.070938737947184194e+00 0.000000000000000000e+00 0.000000000000000000e+00 0.000000000000000000e+00 8.070938737947184194e+00 0.000000000000000000e+00 0.000000000000000000e+00 0.000000000000000000e+00 8.070938737947184194e+00
8.067375686496180975e+00 0.000000000000000000e+00 0.000000000000000000e+00 0.000000000000000000e+00 8.067375686496180975e+00 0.000000000000000000e+00 0.000000000000000000e+00 0.000000000000000000e+00 8.067375686496180975e+00
8.065574578841898656e+00 0.000000000000000000e+00 0.000000000000000000e+00 0.000000000000000000e+00 8.065574578841898656e+00 0.000000000000000000e+00 0.000000000000000000e+00 0.000000000000000000e+00 8.065574578841898656e+00
8.067034702874986252e+00 0.000000000000000000e+00 0.000000000000000000e+00 0.000000000000000000e+00 8.067034702874986252e+00 0.000000000000000000e+00 0.000000000000000000e+00 0.000000000000000000e+00 8.067034702874986252e+00
8.071430308957552313e+00 0.000000000000000000e+00 0.000000000000000000e+00 0.000000000000000000e+00 8.071430308957552313e+00 0.000000000000000000e+00 0.000000000000000000e+00 0.000000000000000000e+00 8.071430308957552313e+00
8.077490261774638469e+00 0.000000000000000000e+00 0.000000000000000000e+00 0.000000000000000000e+00 8.077490261774638469e+00 0.000000000000000000e+00 0.000000000000000000e+00 0.000000000000000000e+00 8.077490261774638469e+00
8.083385897054586877e+00 0.000000000000000000e+00 0.000000000000000000e+00 0.000000000000000000e+00 8.083385897054586877e+00 0.000000000000000000e+00 0.000000000000000000e+00 0.000000000000000000e+00 8.083385897054586877e+00
8.088385591565840471e+00 0.000000000000000000e+00 0.000000000000000000e+00 0.000000000000000000e+00 8.088385591565840471e+00 0.000000000000000000e+00 0.000000000000000000e+00 0.000000000000000000e+00 8.088385591565840471e+00
8.092231695268507607e+00 0.000000000000000000e+00 0.000000000000000000e+00 0.000000000000000000e+00 8.092231695268507607e+00 0.000000000000000000e+00 0.000000000000000000e+00 0.000000000000000000e+00 8.092231695268507607e+00
8.094874955865103416e+00 0.000000000000000000e+00 0.000000000000000000e+00 0.000000000000000000e+00 8.094874955865103416e+00 0.000000000000000000e+00 0.000000000000000000e+00 0.000000000000000000e+00 8.094874955865103416e+00
8.096649866322184863e+00 0.000000000000000000e+00 0.000000000000000000e+00 0.000000000000000000e+00 8.096649866322184863e+00 0.000000000000000000e+00 0.000000000000000000e+00 0.000000000000000000e+00 8.096649866322184863e+00
8.097399504004044957e+00 0.000000000000000000e+00 0.000000000000000000e+00 0.000000000000000000e+00 8.097399504004044957e+00 0.000000000000000000e+00 0.000000000000000000e+00 0.000000000000000000e+00 8.097399504004044957e+00
8.096442623386138848e+00 0.000000000000000000e+00 0.000000000000000000e+00 0.000000000000000000e+00 8.096442623386138848e+00 0.000000000000000000e+00 0.000000000000000000e+00 0.000000000000000000e+00 8.096442623386138848e+00
8.092999833983871127e+00 0.000000000000000000e+00 0.000000000000000000e+00 0.000000000000000000e+00 8.092999833983871127e+00 0.000000000000000000e+00 0.000000000000000000e+00 0.000000000000000000e+00 8.092999833983871127e+00
8.089073620942334841e+00 0.000000000000000000e+00 0.000000000000000000e+00 0.000000000000000000e+00 8.089073620942334841e+00 0.000000000000000000e+00 0.000000000000000000e+00 0.000000000000000000e+00 8.089073620942334841e+00
8.088007697317113553e+00 0.000000000000000000e+00 0.000000000000000000e+00 0.000000000000000000e+00 8.088007697317113553e+00 0.000000000000000000e+00 0.000000000000000000e+00 0.000000000000000000e+00 8.088007697317113553e+00
8.090098083740219437e+00 0.000000000000000000e+00 0.000000000000000000e+00 0.000000000000000000e+00 8.090098083740219437e+00 0.000000000000000000e+00 0.000000000000000000e+00 0.000000000000000000e+00 8.090098083740219437e+00
8.093247427147650441e+00 0.000000000000000000e+00 0.000000000000000000e+00 0.000000000000000000e+00 8.093247427147650441e+00 0.000000000000000000e+00 0.000000000000000000e+00 0.000000000000000000e+00 8.093247427147650441e+00
8.094938122203499731e+00 0.000000000000000000e+00 0.000000000000000000e+00 0.000000000000000000e+00 8.094938122203499731e+00 0.000000000000000000e+00 0.000000000000000000e+00 0.000000000000000000e+00 8.094938122203499731e+00
8.094117177263106200e+00 0.000000000000000000e+00 0.000000000000000000e+00 0.000000000000000000e+00 8.094117177263106200e+00 0.000000000000000000e+00 0.000000000000000000e+00 0.000000000000000000e+00 8.094117177263106200e+00
8.092030603844051484e+00 0.000000000000000000e+00 0.000000000000000000e+00 0.000000000000000000e+00 8.092030603844051484e+00 0.000000000000000000e+00 0.000000000000000000e+00 0.000000000000000000e+00 8.092030603844051484e+00
8.089155835029087527e+00 0.000000000000000000e+00 0.000000000000000000e+00 0.000000000000000000e+00 8.089155835029087527e+00 0.000000000000000000e+00 0.000000000000000000e+00 0.000000000000000000e+00 8.089155835029087527e+00
8.085135601557761120e+00 0.000000000000000000e+00 0.000000000000000000e+00 0.000000000000000000e+00 8.085135601557761120e+00 0.000000000000000000e+00 0.000000000000000000e+00 0.000000000000000000e+00 8.085135601557761120e+00
8.081170903226759350e+00 0.000000000000000000e+00 0.000000000000000000e+00 0.000000000000000000e+00 8.081170903226759350e+00 0.000000000000000000e+00 0.000000000000000000e+00 0.000000000000000000e+00 8.081170903226759350e+00
8.078172396114068121e+00 0.000000000000000000e+00 0.000000000000000000e+00 0.000000000000000000e+00 8.078172396114068121e+00 0.000000000000000000e+00 0.000000000000000000e+00 0.000000000000000000e+00 8.078172396114068121e+00
8.075678429285092719e+00 0.000000000000000000e+00 0.000000000000000000e+00 0.000000000000000000e+00 8.075678429285092719e+00 0.000000000000000000e+00 0.000000000000000000e+00 0.000000000000000000e+00 8.075678429285092719e+00
8.073283348076902399e+00 0.000000000000000000e+00 0.000000000000000000e+00 0.000000000000000000e+00 8.073283348076902399e+00 0.000000000000000000e+00 0.000000000000000000e+00 0.000000000000000000e+00 8.073283348076902399e+00