7.930022073078999867e+00 1.083782760369999959e-01 7.853236369244999793e+00 7.928683190423999605e+00 1.073297163130000065e-01 3.870152497681000003e+00 7.921995619872999939e+00 4.095078943427999718e+00 7.850379246684999757e+00 7.933333357905000049e+00 4.087466818136999969e+00 3.867506678033000078e+00 3.944901500763000168e+00 1.132764056999999991e-01 7.848582549727000313e+00 3.943322706830000079e+00 1.083155409810000053e-01 3.867722517529999848e+00 3.939292076134000009e+00 4.092998034028999754e+00 7.851648961596000120e+00 3.945972165076999882e+00 4.096317284232999789e+00 3.862529261676999948e+00 1.957809759180000109e+00 2.044796140008000140e+00 5.971231231421000096e+00 5.932042424339999620e+00 2.038072634524000115e+00 5.977049572029000224e+00 5.930213899662000188e+00 6.036209968081999833e+00 5.969937663924000049e+00 1.948663239817999937e+00 6.021235454622000383e+00 1.982946478799999968e+00 1.945023413714999982e+00 6.023282860410000161e+00 5.966826367161999656e+00 5.931807518904999910e+00 2.045606870798999832e+00 1.985491219317000011e+00 5.929058121255000202e+00 6.020742822849999953e+00 1.972618887757999984e+00 1.946033103413999932e+00 2.039775377066999962e+00 1.991897152638000046e+00 1.992473346047999971e+00 2.013543554369999988e+00 7.964811183501000258e+00 7.956983888633000213e+00 1.991315795333999938e+00 2.000275378410000027e+00 1.994046460315000102e+00 7.968299770117999614e+00 1.983682131232000101e+00 2.000921357569999781e+00 2.005771423236000217e+00 3.975562734179999946e+00 3.580727262999999945e-03 1.983347254904000101e+00 5.975721262699000391e+00 2.001042518313000063e+00 1.002610617299999965e-02 5.972165270270999748e+00 1.988192125932999987e+00 5.980773989457000006e+00 7.957454395289000004e+00 1.379242142200000007e-02 5.982454483425000191e+00 1.993849600974999969e+00 1.994885358868000003e+00 3.999579147383999889e+00 1.991684800865999971e+00 1.998608636239999958e+00 5.973160210349999666e+00 3.998179443101999908e+00 1.784343711000000061e-03 5.983151511732000216e+00 5.976339930926999777e+00 1.975441441699999912e+00 4.005379092111000183e+00 5.967749297861000279e+00 5.983442042719000042e+00 1.977667323332999993e+00 9.546052354000000503e-03 3.978589968365000118e+00 1.989507400137999982e+00 1.977481205744999970e+00 5.966858425948999844e+00 7.966092627174999663e+00 2.007330477343999942e+00 5.953898920194999889e+00 1.992314378471000014e+00 4.002235105752999900e+00 3.998937904109999941e+00 1.982574848725999983e+00 5.991005215920999660e+00 5.968158879640999892e+00 7.962212768601999890e+00 5.967229735926999901e+00 5.980463481743999665e+00 5.961675149970999676e+00 7.959305063750999665e+00 3.984872914733999849e+00 5.973432742671000106e+00 1.995658403471000097e+00 5.968275262380999813e+00 3.988863282237999908e+00 1.986067173427999988e+00 5.975740837148999951e+00 5.970074457918999933e+00 3.982074126540000147e+00 3.990499920692999858e+00 5.983766655580000204e+00 5.978075727991999599e+00 5.977657286624999955e+00 3.991363480491000093e+00 5.990424974351999943e+00
7.941247436603999788e+00 1.057838683539999991e-01 7.870511609917000051e+00 7.932574941144999947e+00 9.906262817899999518e-02 3.890143075019000030e+00 7.892574884710000127e+00 4.105829568220999981e+00 7.853132547729000379e+00 7.960498900629000119e+00 4.060553346382000051e+00 3.874687494339999816e+00 3.953892898803999856e+00 1.347428555849999876e-01 7.842881799897999606e+00 3.945155183704999846e+00 1.045786558429999957e-01 3.875447497961999943e+00 3.920887701417000049e+00 4.093725996364000252e+00 7.861167234443000140e+00 3.961057238033999894e+00 4.114074444716999679e+00 3.844427345110999816e+00 2.011534575353000065e+00 2.060427329376000039e+00 5.973242782105000259e+00 5.943092471125999587e+00 2.027556407729000032e+00 6.004605702511000231e+00 5.930290968867000245e+00 6.086666478817000403e+00 5.962785141649000309e+00 1.967141758329000067e+00 5.999319541201000305e+00 1.964684783053999961e+00 1.942012959813000039e+00 6.013817087664000027e+00 5.948689830672999612e+00 5.940904607460000264e+00 2.060698434540999990e+00 1.982193442965000107e+00 5.935216060552000350e+00 5.995591547593999593e+00 1.908500845754999897e+00 1.948362285174999986e+00 2.028643697325000161e+00 2.015877441539000170e+00 1.997323371200999897e+00 2.113392308563999844e+00 7.834904070161999634e+00 7.816029625648000412e+00 1.983756071318999892e+00 2.050240708311999782e+00 2.004983835460000030e+00 7.909942456573999969e+00 1.946846926322999938e+00 2.050757155062000070e+00 2.069264055958000004e+00 4.067562917433999559e+00 2.364310703999999985e-02 1.937749548943999978e+00 5.977766949274999853e+00 2.045340213888000136e+00 5.816706212000000153e-02 5.957723869937000316e+00 1.970268582379000044e+00 6.003714839559999739e+00 7.901203889269000413e+00 9.876660423899999430e-02 6.009225007338000246e+00 2.008979370121000141e+00 2.009771565432000084e+00 4.163680642936999909e+00 1.994914265001999976e+00 2.028982365797999954e+00 5.962688767624999997e+00 4.056218487010999851e+00 2.099063352400000124e-02 6.020630893017999696e+00 5.980016760515000307e+00 1.900455735184999995e+00 4.098399523970000402e+00 5.931879365349000288e+00 6.023199036349000224e+00 1.904268701294999921e+00 2.343074680999999992e-02 4.019395408472999698e+00 1.975311964791000019e+00 1.909090936601000044e+00 5.926643769865999722e+00 5.195556558500000199e-02 2.090123097170999866e+00 5.849321467745999925e+00 1.995697601862000070e+00 4.097248617401000104e+00 4.061590399421000086e+00 1.938392961277999982e+00 6.072104163959999745e+00 5.936316140671999975e+00 7.957088057982000251e+00 5.933870133727999985e+00 6.010531320612000350e+00 5.889647847421000115e+00 7.851973766948000311e+00 3.918670395951000085e+00 5.954925703187000430e+00 2.018612032954000046e+00 5.934154470054999742e+00 3.975180878513000060e+00 1.963021972995999898e+00 5.981505577018999986e+00 5.929908909248999827e+00 4.038326193434000011e+00 3.991592980010000069e+00 6.016906415444999823e+00 5.993165453815000099e+00 5.990918219855999816e+00 3.995581512824999848e+00 6.066485116173000236e+00
7.962586352435000236e+00 1.034482296580000044e-01 7.900009153874999690e+00 7.944490823408999702e+00 8.983193087999999382e-02 3.916277446717999933e+00 7.871696034916999984e+00 4.123588268053000050e+00 7.867552705864000018e+00 2.422964696999999924e-03 4.042035821636999593e+00 3.889307529888000214e+00 3.970779561327999918e+00 1.557187762580000134e-01 7.850789012681000045e+00 3.957388421099000020e+00 9.982107516499999500e-02 3.888722962496999891e+00 3.912732454931000081e+00 4.101909438658999818e+00 7.883596526529999871e+00 3.986805445957000149e+00 4.140133762791999850e+00 3.832747701680999874e+00 2.053744464800999925e+00 2.070807017238000203e+00 5.979747447988000175e+00 5.971290919653999829e+00 2.039573554458999904e+00 6.027811067515999710e+00 5.936571183516000438e+00 6.136122626613000008e+00 5.950969389893000283e+00 1.996294136780000006e+00 6.002631835148999784e+00 1.944680937151999967e+00 1.947016437974000036e+00 6.024873066430999735e+00 5.941349947204000337e+00 5.948694532068000029e+00 2.068569029783999813e+00 1.983800548043000100e+00 5.962266056634000222e+00 5.996902817608999570e+00 1.866476842056999930e+00 1.953765003155000013e+00 2.023050119226000199e+00 2.033745261228999901e+00 2.002469288082000087e+00 2.208196970587000152e+00 7.733810492697999806e+00 7.788442918274999904e+00 1.981065320371999894e+00 2.124170392583999867e+00 2.016181801400999785e+00 7.918309233341999764e+00 1.923899563021999937e+00 2.109278375553000018e+00 2.136221952286999848e+00 4.208223247819000257e+00 3.536305022399999914e-02 1.894872543346999949e+00 5.987986327374000162e+00 2.086914513930000048e+00 9.845413062999999743e-02 5.963242868281000142e+00 1.962104250272999950e+00 6.032639219346999759e+00 7.908473538904999600e+00 9.531672716399999801e-02 6.036581203387999750e+00 2.039757474500000001e+00 2.019343425843000084e+00 4.180464949479000047e+00 2.009335963570999972e+00 2.054841631968999938e+00 5.978519699773999996e+00 4.031034955424999566e+00 2.377787124999999890e-02 6.081328432461999611e+00 5.990981810662000306e+00 1.852689672936999932e+00 4.116801865162999619e+00 5.919294114961999753e+00 6.080212267531000414e+00 1.833198712605000003e+00 3.431787565999999852e-03 4.054303868676999656e+00 1.972681903557000016e+00 1.850511848927999914e+00 5.907881720046000318e+00 1.321912658699999910e-01 2.183671895598000123e+00 5.773945017446999728e+00 2.015232992495000097e+00 4.150235849987000236e+00 4.079831450797000159e+00 1.917520669006000045e+00 6.173524450170000399e+00 5.935204760800999679e+00 8.670279467000000656e-03 5.933440873723999864e+00 6.064766070043000390e+00 5.845740231610999871e+00 7.765505287462000084e+00 3.869069885830000111e+00 5.943533771186999992e+00 2.047903191375000098e+00 5.917917288800000009e+00 3.959137405768000217e+00 1.954033122575999926e+00 6.009351997136000101e+00 5.876954304084000213e+00 4.135210257464000172e+00 3.964895349998000196e+00 6.043392710967999903e+00 6.025242933083999830e+00 6.025797004163999659e+00 3.941424167476999862e+00 6.149470038868999566e+00
7.996299884953000259e+00 1.016959949470000041e-01 7.941176347974000294e+00 7.966305186255000059e+00 7.954276053999999319e-02 3.950085797856000003e+00 7.861878506444999637e+00 4.148805521583000200e+00 7.893888114799000100e+00 1.516853580700000016e-02 4.033162132982000436e+00 3.912661145337999802e+00 3.995443000898999841e+00 1.768175596279999984e-01 7.872265726836999988e+00 3.980522389443999831e+00 9.494894406100000406e-02 3.909303421659000133e+00 3.915038287509999826e+00 4.117208479876000027e+00 7.918968896747999864e+00 4.023471536708999707e+00 4.174440350719000214e+00 3.829308164149999971e+00 2.082019110934000050e+00 2.068664257661000150e+00 6.000628064144000184e+00 6.020182030714000376e+00 2.073140114576999871e+00 6.046799212626999598e+00 5.949444670467999963e+00 6.190562356844999670e+00 5.943043400584000047e+00 2.021989008544999855e+00 6.034851408314000132e+00 1.922258418448000050e+00 1.958770755573999933e+00 6.057496776834000229e+00 5.945010010705000347e+00 5.954309398749000337e+00 2.069160326338999933e+00 1.988245546654999973e+00 6.005720938617000293e+00 6.032391815909999622e+00 1.852719881028999982e+00 1.962750945058999941e+00 2.024672848273000092e+00 2.047763966793000101e+00 1.999043960984000057e+00 2.299728006917999945e+00 7.849621119154000404e+00 7.957548868118999863e+00 1.989111613703000048e+00 2.226203358698000123e+00 2.026649874603000168e+00 4.016291582999999797e-03 1.918620797595000038e+00 2.180527777651000143e+00 2.207327163092999811e+00 4.176381252538999611e+00 1.665289981099999858e-02 1.853036608827000054e+00 5.996612217812000267e+00 2.121119267176000189e+00 8.717129258200000119e-02 5.990929771834999862e+00 1.965600102648999981e+00 6.062181433531000252e+00 7.984579175613999880e+00 3.154030064000000119e-03 6.063703811965000412e+00 2.084730040799999795e+00 2.016662451204000117e+00 4.007982218668000307e+00 2.035906034013999832e+00 2.070202103060000187e+00 6.028079736213999951e+00 3.954054669586000159e+00 1.013488051099999988e-02 6.171126803088999857e+00 6.002206811181999946e+00 1.834562892472999973e+00 4.100250702538000169e+00 5.932365359977000097e+00 6.158316248068000043e+00 1.768505816617000015e+00 8.673696527999999462e-03 4.014105022024000213e+00 1.988685552386000088e+00 1.800655517720999965e+00 5.911686994863999622e+00 1.334870723559999917e-01 2.286734368643999815e+00 5.730883173478000359e+00 2.061524374839999840e+00 4.125434192410000200e+00 4.064652832641000302e+00 1.929613553610999954e+00 6.291351753522000045e+00 5.962078500705000117e+00 2.669643303699999887e-02 5.958952566580999921e+00 6.136191860800000342e+00 5.846360404366000019e+00 7.809061058980000247e+00 3.943372014669999981e+00 5.950791233592999774e+00 2.076802419390999965e+00 5.919877814660999604e+00 3.994352143487999829e+00 1.956751136532999924e+00 6.051997454430999568e+00 5.808831435595999793e+00 4.183907550111999996e+00 3.942570411735999869e+00 6.058869066220999855e+00 6.069111392774000358e+00 6.081063175641999941e+00 3.862856841691999943e+00 6.226938941068000055e+00
8.033926960586999400e+00 1.005844243459999982e-01 7.985339475147999799e+00 7.989972149983000094e+00 6.874707153700000684e-02 3.985468882775999866e+00 7.856300947887000063e+00 4.176413795544999807e+00 7.925060713038999616e+00 2.571506161200000015e-02 4.028646080139999697e+00 3.937928538920000054e+00 4.022782191113000394e+00 1.983181437679999992e-01 7.899243878326999813e+00 4.009112302106999870e+00 9.101256260899999451e-02 3.931894409948999858e+00 3.921753557450000205e+00 4.133400918869999607e+00 7.959468723344000018e+00 4.064745968946000154e+00 4.210845641384000082e+00 3.828827089434000186e+00 2.093914728236999867e+00 2.059319922622000032e+00 6.038760283075999880e+00 6.078769277030000140e+00 2.106400676130999905e+00 6.051407894191999759e+00 5.967188223161000060e+00 6.246502359004000304e+00 5.951950251740999676e+00 2.035867135165000175e+00 6.072004164985999708e+00 1.902232185312999979e+00 1.970055974257000075e+00 6.096773172005000241e+00 5.948142320786000248e+00 5.962629142955999662e+00 2.063623884395000108e+00 1.994486635734000091e+00 6.053882696226000171e+00 6.088566145047000333e+00 1.865066530738000106e+00 1.975204930632999956e+00 2.026316115148000030e+00 2.054746776627999871e+00 1.979289041437999996e+00 2.360708400960000120e+00 8.014441999994000199e+00 8.053133589510000689e+00 2.001669016575999827e+00 2.345395493393000130e+00 2.040821035786999804e+00 8.053995128154999961e+00 1.924172529722000036e+00 2.267312490186999874e+00 2.255581014004000018e+00 4.105090577267000107e+00 8.042565125521999647e+00 1.813060383193999980e+00 5.991787599335999914e+00 2.141495504023999796e+00 2.704508418199999889e-02 6.032983829798999942e+00 1.974569434194999973e+00 6.080051577609999924e+00 8.058126805865999387e+00 8.031765729695999667e+00 6.082139017972999717e+00 2.128482322642999858e+00 2.010943309897999853e+00 4.007781596805999769e+00 2.068261915607000123e+00 2.068576577259999993e+00 6.100704551821999999e+00 3.929803335959999977e+00 1.718616347199999894e-02 6.269015400558999751e+00 6.006771060652999594e+00 1.841572240577000086e+00 4.118566162129000396e+00 5.963204465359999595e+00 6.243077303471999961e+00 1.716615961125000034e+00 6.170022782299999786e-02 4.037814027660999727e+00 2.012829517861999928e+00 1.753477718897999971e+00 5.934803437410000271e+00 8.026750853599999569e-02 2.385657444411000139e+00 5.713589127878999641e+00 2.130509624211000208e+00 4.062202044450000216e+00 4.041890896195000416e+00 1.975361129024000073e+00 6.398001695385000076e+00 5.989521563792999714e+00 5.253465600000000336e-05 5.984250903390000431e+00 6.201972617347999872e+00 5.896278836035000026e+00 7.914739448889999807e+00 4.032884198772999973e+00 5.973620958055000152e+00 2.088939945886000071e+00 5.939270108567000328e+00 4.012313351088000246e+00 1.962906661476000014e+00 6.089169658231999627e+00 5.735114105917999971e+00 4.197031634102000197e+00 3.943497699497000131e+00 6.057655574577999857e+00 6.108708737197999561e+00 6.139794288710000103e+00 3.823068656241999985e+00 6.286912616139000320e+00
8.069052525080000038e+00 9.878131895800000561e-02 8.026572832369000210e+00 8.009440124440999398e+00 5.697173642299999813e-02 4.016867626596000385e+00 7.849914923028999958e+00 4.203727288627000291e+00 7.956651852443999751e+00 3.507380131099999826e-02 4.025227422569000346e+00 3.959500207811999850e+00 4.049141134012000265e+00 2.190002446160000116e-01 7.926402726643999586e+00 4.038931627850000261e+00 8.758318822299999973e-02 3.951608670680999857e+00 3.928387454707999993e+00 4.147280158542000272e+00 7.999553591331999947e+00 4.106127216903000310e+00 4.245997087826999916e+00 3.827013023424000071e+00 2.094231478681999992e+00 2.055854059535000111e+00 6.082199404644000218e+00 6.136042992180000155e+00 2.117454518199000102e+00 6.034926727580000261e+00 5.989679711001000051e+00 6.284274797291000247e+00 5.978433239596999904e+00 2.039513692343999818e+00 6.102488857231000097e+00 1.890149493165999894e+00 1.976846122515000026e+00 6.131194081192999690e+00 5.942851798902999860e+00 5.974663923715000102e+00 2.054793323475999856e+00 2.004958870883000177e+00 6.096639554905999958e+00 6.146932376680999788e+00 1.905324516160000092e+00 1.990516763565000069e+00 2.025229001525000072e+00 2.053383123621999928e+00 1.938521775287999960e+00 2.366085832546000134e+00 8.057029241205999170e+00 7.983686326801000099e+00 2.009937855415000030e+00 2.471184617951000195e+00 2.064342751213999794e+00 7.988660235830000289e+00 1.935400046325000067e+00 2.361202860635000178e+00 2.251684306927999923e+00 4.164555285858000389e+00 8.042249547811000099e+00 1.784249030285000037e+00 5.973023828507000310e+00 2.151157625903000081e+00 8.094095873917000361e+00 6.087684795776000080e+00 1.983930006510000066e+00 6.081012930308999920e+00 8.065730935863999918e+00 4.597804838200000160e-02 6.091233480957000346e+00 2.161084890789000124e+00 2.009022647175000120e+00 4.228244116717999823e+00 2.103805152709000037e+00 2.057103450238999987e+00 6.183823053332000441e+00 4.013692921029000438e+00 4.303513327399999949e-02 6.350907437797999933e+00 6.010316705382999558e+00 1.865574871745000030e+00 4.152131942332999870e+00 6.006984676260000100e+00 6.320336247123999662e+00 1.682052679834000086e+00 1.089932784139999999e-01 4.139979843576999663e+00 2.028623867843000195e+00 1.704395006171999905e+00 5.973047842268999652e+00 3.324445080300000160e-02 2.469357362529999822e+00 5.718727483633999853e+00 2.205979450042999890e+00 4.047265841443000056e+00 4.024780059867000048e+00 2.046497212128000065e+00 6.466265139651000027e+00 5.992988260201999928e+00 8.062650919979999387e+00 5.990448446431000384e+00 6.250572392998000382e+00 5.993028919676000044e+00 7.980559440426000073e+00 4.048412712162999583e+00 6.007410214263000370e+00 2.080675955448000103e+00 5.980221259311999660e+00 3.968237204509999838e+00 1.959859452214000042e+00 6.109145303789000003e+00 5.680601847942000404e+00 4.238381988470999673e+00 3.987355739564999890e+00 6.041197031252999672e+00 6.135992034260000061e+00 6.188193698680000132e+00 3.854084641018999946e+00 6.328458846012000372e+00
8.100402907631000460e+00 9.452402395600000007e-02 8.062813520870999895e+00 8.023622246638000277e+00 4.321534197400000304e-02 4.043145041897999725e+00 7.841673942549999943e+00 4.231074719699999598e+00 7.987402113296999673e+00 4.291266120199999784e-02 4.023086214756999901e+00 3.976789714776999940e+00 4.073553062192000418e+00 2.374031036339999956e-01 7.951288467296000029e+00 4.068487395575999699e+00 8.357737193900000028e-02 3.967812682538999880e+00 3.933809679533000203e+00 4.159679769370000280e+00 8.036279562876000426e+00 4.146805275430000215e+00 4.280112507748000006e+00 3.823805453123000131e+00 2.093908634286000048e+00 2.062208864729000002e+00 6.124875205736000083e+00 6.184100570102000205e+00 2.115405131576999942e+00 5.999594585557000315e+00 6.012941304227999773e+00 6.287219910359000075e+00 6.022912093485000007e+00 2.036228068463000085e+00 6.129311926297999591e+00 1.878340448029000020e+00 1.980318297618999912e+00 6.156388794854000146e+00 5.934672308869999746e+00 5.999839007397000046e+00 2.042176397532999843e+00 2.019936666321000107e+00 6.134064184345000115e+00 6.190867986579999815e+00 1.968892933862999906e+00 2.003431792565999903e+00 2.028337510974000057e+00 2.048579761990000137e+00 1.874117393532999998e+00 2.316563735977999805e+00 8.014757625329000490e+00 7.910401408493999753e+00 2.016413852384999927e+00 2.581887749602000071e+00 2.096766721538999789e+00 8.033494418188999120e+00 1.960391956263999980e+00 2.436765413373000122e+00 2.194169899998999806e+00 4.290563033700999895e+00 8.040674715204000123e+00 1.776941407630999947e+00 5.943562755031000400e+00 2.163902416921999805e+00 5.274718852600000091e-02 6.160128341920000139e+00 1.994647159524000068e+00 6.068957590978000027e+00 8.034496643437000429e+00 1.504434423899999873e-01 6.100079166252999840e+00 2.185666762194999890e+00 2.009515622097000076e+00 4.346131415588000202e+00 2.158480658574000177e+00 2.054082313413000183e+00 6.270245478297000297e+00 4.142715350009000375e+00 5.701268240300000345e-02 6.407690971973999616e+00 6.021327318988999977e+00 1.891960080148999968e+00 4.163961621441999661e+00 6.056426070135000117e+00 6.384047294791000304e+00 1.664089070044999952e+00 1.105128793440000035e-01 4.161206569444999559e+00 2.027776628719000218e+00 1.657844804533000094e+00 6.020164496812999921e+00 1.714609179900000030e-02 2.539674123716999965e+00 5.737715650702000403e+00 2.268112291540000047e+00 4.132730517349999744e+00 4.024831586770000413e+00 2.124290017032000044e+00 6.495047689934000168e+00 5.965198803507999692e+00 8.112716703771999605e+00 5.969529851734000303e+00 6.291731590182999767e+00 6.122495109194000307e+00 7.991903876731999645e+00 4.020489800896999810e+00 6.047951912288000109e+00 2.068330252803999958e+00 6.044174505665999675e+00 3.916650777251999838e+00 1.940283785294999896e+00 6.119134212021999808e+00 5.655445280259000285e+00 4.304606761248000346e+00 4.075904688669999665e+00 6.017875566945999566e+00 6.151667519923000427e+00 6.223689946804999984e+00 3.906769380361999833e+00 6.354366653795000097e+00
8.127765231365000176e+00 8.750191236899999836e-02 8.091919873648999229e+00 8.032580374976999948e+00 2.769828383500000032e-02 4.065521250433000056e+00 7.830836607302000374e+00 4.257857990822000005e+00 8.015203103700999421e+00 4.896049789399999769e-02 4.021807036708000105e+00 3.991102829491000037e+00 4.095375833520000342e+00 2.538051853409999947e-01 7.970980628236000065e+00 4.096224796786000155e+00 7.917344732599999879e-02 3.981836053703000200e+00 3.937668799233000172e+00 4.170271860669999775e+00 8.066357003453999752e+00 4.186075741592000021e+00 4.312428409854000222e+00 3.820550508665999878e+00 2.102210662357999915e+00 2.071791732558999843e+00 6.164330089652000133e+00 6.213519897858000185e+00 2.113357740386999861e+00 5.957913247148000302e+00 6.030241897346999558e+00 6.268791324848000279e+00 6.083321503679999687e+00 2.032774360494999932e+00 6.165476330717999609e+00 1.854014643166000065e+00 1.981408039696999968e+00 6.172124101358999582e+00 5.945551423762999832e+00 6.036140254787000003e+00 2.021980623404000088e+00 2.032165538862999998e+00 6.163747266119999679e+00 6.213433181973999631e+00 2.039458039013999802e+00 2.011534269120999863e+00 2.038055153694000143e+00 2.043381020157999828e+00 1.783120312202999935e+00 2.233290365857000026e+00 8.000777951501000018e+00 7.930997372621000352e+00 2.023340494590999850e+00 2.662772504013999786e+00 2.128841943987000107e+00 3.665504572900000341e-02 2.000194900168999812e+00 2.477673180709000000e+00 2.105733782414000110e+00 4.354549035604000196e+00 8.041223690245999478e+00 1.792795239359999959e+00 5.902051656629000220e+00 2.185274879031999795e+00 1.401140270550000066e-01 6.246827763524000154e+00 2.009479977382000015e+00 6.053608777841000155e+00 8.057008519872999486e+00 1.764212316609999887e-01 6.120571873921999639e+00 2.212019774653999793e+00 2.014937426379999952e+00 4.214757208332000182e+00 2.245666621455999934e+00 2.076072224079999806e+00 6.355272174869999624e+00 4.150307175287999861e+00 5.713337803600000014e-02 6.439028046992000043e+00 6.039611679709000036e+00 1.907467562454999932e+00 4.179243819006999594e+00 6.092672714935999601e+00 6.424735332170000035e+00 1.668041251740000064e+00 1.104931136060000041e-01 4.088252479348000179e+00 2.016363266413999877e+00 1.632995105722000018e+00 6.069705372746000194e+00 3.762485083500000105e-02 2.592486891840999785e+00 5.758018029398000337e+00 2.307630743227000014e+00 4.255501302206000425e+00 4.051039395024999656e+00 2.193967765158999939e+00 6.512907870743999794e+00 5.914662759139999615e+00 3.713057871799999715e-02 5.921606141965000347e+00 6.337675753570000126e+00 6.261516999620999613e+00 7.997919102864000429e+00 4.005320462730000308e+00 6.089910153761000089e+00 2.069625421561999801e+00 6.120181787238999860e+00 3.916398181414999957e+00 1.909423222695000089e+00 6.135716771192999630e+00 5.651918476405000114e+00 4.339336229777000398e+00 4.164175493973999664e+00 5.995334375369999691e+00 6.157165218079000191e+00 6.255480840407000365e+00 3.945791637444000077e+00 6.378184045709000216e+00
8.146965332579000574e+00 7.916618410700000663e-02 8.108620106286000606e+00 8.033045880019999530e+00 1.153826135400000050e-02 4.083092026380000128e+00 7.812843130230000099e+00 4.280177835864000357e+00 8.034927153179999948e+00 5.396789140100000104e-02 4.018359511329999911e+00 4.000616347012000418e+00 4.112199137305999841e+00 2.696687756839999950e-01 7.979886091381000135e+00 4.117843292661000021e+00 7.515352217399999535e-02 3.992836672480999827e+00 3.938366548724999916e+00 4.174753765703999697e+00 8.084366955537999999e+00 4.220085504797999931e+00 4.339334354223000290e+00 3.815826599959000198e+00 2.122781451865999980e+00 2.078738163716999932e+00 6.189403904593000050e+00 6.218229144986000101e+00 2.110406035083999932e+00 5.936479366403999869e+00 6.034861297771000110e+00 6.245166710789000319e+00 6.139678622864000346e+00 2.030786405463000044e+00 6.199805149480000388e+00 1.826040341014000035e+00 1.978035123126000050e+00 6.176507743770000225e+00 5.968510400227000190e+00 6.071355423387999828e+00 1.996750777758000028e+00 2.032217272247000217e+00 6.181605199870999989e+00 6.212225088992999744e+00 2.105810470628000086e+00 2.011214158097000215e+00 2.058667911865999844e+00 2.038538301770000061e+00 1.666835398404000079e+00 2.143918991232999893e+00 8.048754632999999714e+00 7.994150681402000025e+00 2.026116221730000166e+00 2.700080449521999881e+00 2.144864470387000122e+00 5.919744671899999922e-02 2.029190009658000005e+00 2.483350597480999955e+00 2.007276292907000048e+00 4.330030781874000034e+00 8.056355866918000430e+00 1.825084709455000009e+00 5.847309997815999694e+00 2.210772261146999984e+00 1.555986389829999983e-01 6.334777634001000024e+00 2.025662338612999935e+00 6.045792596799000052e+00 8.147299107845000776e+00 1.363404881409999991e-01 6.149162961713999564e+00 2.228551416316999934e+00 2.022745946825000196e+00 4.060640044487000111e+00 2.328797527133999790e+00 2.119764583487000031e+00 6.423585198052999878e+00 4.065715428675000354e+00 8.247655280900000052e-02 6.442498911892999836e+00 6.060684947791999733e+00 1.911703760335000002e+00 4.244523389177000006e+00 6.102091008247000126e+00 6.433906097343999875e+00 1.692685217921999996e+00 1.661612747400000034e-01 4.074271058579999938e+00 2.005793037251000221e+00 1.644073079620000044e+00 6.110778688292000105e+00 8.887808001399999380e-02 2.610489836501999950e+00 5.758529070038999720e+00 2.333608172779999990e+00 4.271617807007999978e+00 4.084325730577000435e+00 2.251337716459000049e+00 6.548250024138000391e+00 5.856438950741000404e+00 6.620190921000000672e-02 5.859648820728000196e+00 6.385312937920000209e+00 6.385488707196000036e+00 8.030511854811999584e+00 3.998794671958000091e+00 6.122100390635999645e+00 2.081037096449999790e+00 6.185967603701000073e+00 3.951288252771000042e+00 1.878635645481000038e+00 6.165769647864999925e+00 5.672444518114000189e+00 4.318980648664999755e+00 4.190244720521000055e+00 5.975215551458999741e+00 6.159176181537000083e+00 6.286255951457000002e+00 3.982310494577999904e+00 6.416136612659999905e+00
8.155280737997999907e+00 7.078285093800000538e-02 8.110688082043999714e+00 8.023242811723999779e+00 8.173126492536999521e+00 4.093799315374999637e+00 7.785281368090999798e+00 4.295445311328999871e+00 8.045492774310000428e+00 5.849756600599999995e-02 4.010858217987999907e+00 4.002430618273000285e+00 4.122423031084999856e+00 2.850809608229999959e-01 7.975852764466999645e+00 4.129944197124999938e+00 7.140243799400000646e-02 3.998881682103000212e+00 3.935448559041999861e+00 4.170881041956000068e+00 8.088617928090000575e+00 4.245955676960000424e+00 4.358896579698999574e+00 3.807399346206000068e+00 2.153564003606000199e+00 2.074768960904000092e+00 6.189626463147999580e+00 6.201767367683999943e+00 2.105913264707000021e+00 5.934997218540999597e+00 6.021372618575999702e+00 6.216789855368999973e+00 6.171350948317999574e+00 2.026030334257999943e+00 6.228485549159000101e+00 1.818577319262000058e+00 1.972629405940000025e+00 6.173664157468000013e+00 5.976854681819999904e+00 6.100494124894000336e+00 1.976292273604000060e+00 2.022647940555999835e+00 6.188678614688999602e+00 6.188258518948999587e+00 2.163764986349999919e+00 2.001213388546000171e+00 2.080573898417000134e+00 2.033845956019999957e+00 1.547807846863000103e+00 2.070416649119000141e+00 8.091137686672000839e+00 8.041898586220000311e+00 2.017209920066000084e+00 2.689060312196999813e+00 2.136441607425000111e+00 8.098752884086000137e+00 2.018506618677999853e+00 2.451678870310999958e+00 1.910709316546000069e+00 4.302592435526999992e+00 8.069310266716000157e+00 1.870719011473999993e+00 5.793043429202000105e+00 2.239917210913000112e+00 8.992691835199999317e-02 6.409871596113999814e+00 2.037797224788000072e+00 6.041399277461000139e+00 1.101418853100000032e-02 9.522233406600000283e-02 6.174934083287999975e+00 2.217354734659000126e+00 2.027529710506999816e+00 4.053333704185999586e+00 2.391549767972000140e+00 2.164027098022000217e+00 6.448204302361999929e+00 4.061676638655000282e+00 1.321758572149999977e-01 6.421100162603999628e+00 6.085569394269000121e+00 1.915159047743000054e+00 4.323191754198999703e+00 6.091836669936999904e+00 6.426848146138000040e+00 1.719854628251000106e+00 2.332542294019999962e-01 4.169440899920999755e+00 1.998035273274000101e+00 1.680950426084000027e+00 6.134640307496000311e+00 1.371044695439999905e-01 2.586934908933999910e+00 5.739614616346999654e+00 2.353263937813999895e+00 4.174468247576999858e+00 4.088986714503000108e+00 2.292661114886000107e+00 6.599285077152000412e+00 5.810087098309000275e+00 5.841043933900000318e-02 5.809843213824000152e+00 6.416753980731000340e+00 6.475825050355999757e+00 8.064477818977000112e+00 3.995316006641000062e+00 6.128652348063999611e+00 2.087969742801000006e+00 6.226552494505999569e+00 3.990766546910999857e+00 1.852929504360000035e+00 6.200261631091000147e+00 5.729491051723000439e+00 4.280612156810000180e+00 4.156289177330999784e+00 5.960130716202000301e+00 6.170462302496000362e+00 6.296802436673000436e+00 4.018192280285999729e+00 6.457511027656000380e+00