-3.498685390729999926e+04
-3.498760106500000256e+04
-3.498672282770000311e+04
-3.498750076779999654e+04
-3.498684373619999678e+04
-3.498738794200000120e+04
-3.498715236200000072e+04
-3.498718599790000007e+04
-3.498677971270000126e+04
-3.498661354690000007e+04
-3.498661115930000233e+04
-3.498701506659999723e+04
-3.498667990090000239e+04
-3.498710888580000028e+04
-3.498722335279999970e+04
-3.498733372999999847e+04
-3.498732001229999878e+04
-3.498730985019999935e+04
-3.498700014209999790e+04
-3.498714751160000014e+04
-3.498690886460000183e+04
-3.498666184519999661e+04
-3.498717960250000033e+04
-3.498712558870000066e+04
-3.498726631720000296e+04
-3.498732465049999882e+04
-3.498718421600000147e+04
-3.498706089939999947e+04
-3.498742827820000093e+04
-3.498728873490000115e+04
-3.498770947960000194e+04
-3.498754662819999794e+04
-3.498729704910000146e+04
-3.498738260219999938e+04
-3.498751809250000224e+04
-3.498750221199999942e+04
-3.498768904450000264e+04
-3.498763386219999666e+04
-3.498739513710000028e+04
-3.498772265039999911e+04
-3.498773532919999707e+04
-3.498776058049999847e+04
-3.498785546649999742e+04
-3.498762551640000311e+04
-3.498748561170000175e+04
-3.498763858579999942e+04
-3.498765225720000308e+04
-3.498780645630000072e+04
-3.498783128240000224e+04
-3.498784554509999725e+04
-3.498761786120000033e+04
-3.498772743710000213e+04
-3.498759096319999662e+04
-3.498742732889999752e+04
-3.498777744759999769e+04
-3.498786336809999921e+04
-3.498717520900000090e+04
-3.498756589710000117e+04
-3.498736671449999994e+04
-3.498708836129999690e+04
-3.498736036849999800e+04
-3.498726988659999915e+04
-3.498702887650000048e+04
-3.498733737899999687e+04
-3.498739125030000287e+04
-3.498725784679999924e+04
-3.498676601520000258e+04
-3.498605685919999814e+04
-3.498661648409999907e+04
-3.498715774339999916e+04
-3.498692196700000204e+04
-3.498707362529999955e+04
-3.498712207409999974e+04
-3.498670021370000177e+04
-3.498635861429999932e+04
-3.498662532890000148e+04
-3.498613168440000300e+04
-3.498704627459999756e+04
-3.498661560599999939e+04
-3.498671741170000314e+04
-3.498680563100000290e+04
-3.498636120990000200e+04
-3.498674676380000164e+04
-3.498689874750000308e+04
-3.498732732180000312e+04
-3.498710119080000004e+04
-3.498703944999999658e+04
-3.498683816330000263e+04
-3.498729604760000075e+04
-3.498726055600000109e+04
-3.498730856869999843e+04
-3.498743846040000062e+04
-3.498721174800000153e+04
-3.498726747320000140e+04
-3.498745501579999836e+04
-3.498753352979999909e+04
-3.498751798699999927e+04
-3.498740140219999739e+04
-3.498746063259999937e+04
-3.498751227669999935e+04
-3.498732963870000094e+04
-3.498747680379999656e+04
-3.498765772160000051e+04
-3.498759721359999821e+04
-3.498748171849999926e+04
-3.498779032960000040e+04
-3.498798708520000218e+04
-3.498771621720000257e+04
-3.498741730739999912e+04
-3.498750913430000219e+04
-3.498747311359999730e+04
-3.498763738639999792e+04
-3.498758726030000253e+04
-3.498759823809999943e+04
-3.498735738419999689e+04
-3.498683116960000189e+04
-3.498689210279999679e+04
-3.498700940499999706e+04
-3.498729133559999900e+04
-3.498720421270000224e+04
-3.498704371399999945e+04
-3.498716551859999890e+04
-3.498680704880000121e+04
-3.498668023510000057e+04
-3.498736650560000271e+04
-3.498767763030000060e+04
-3.498747359880000295e+04
-3.498708365539999795e+04
-3.498680455169999914e+04
-3.498683778239999810e+04
-3.498700497229999746e+04
-3.498701237119999860e+04
-3.498750045240000327e+04
-3.498721893460000138e+04
-3.498701099149999936e+04
-3.498712071100000321e+04
-3.498710366079999949e+04
-3.498726132820000203e+04
-3.498723308079999697e+04
-3.498737093330000062e+04
-3.498727771219999704e+04
-3.498733228209999652e+04
-3.498726115589999972e+04
-3.498715181499999744e+04
-3.498743271609999647e+04
-3.498761371109999891e+04
-3.498768385709999711e+04
-3.498797576850000041e+04
-3.498790652720000071e+04
-3.498768540409999696e+04
-3.498767417749999731e+04
-3.498782201080000232e+04
-3.498777669120000064e+04
-3.498762444390000019e+04
-3.498739372469999944e+04
-3.498748162489999959e+04
-3.498784523420000187e+04
-3.498776234030000342e+04
-3.498758883500000229e+04
-3.498745437900000252e+04
-3.498743548719999671e+04
-3.498764648250000027e+04
-3.498756772430000274e+04
-3.498764212630000111e+04
-3.498729305849999946e+04
-3.498734548099999665e+04
-3.498727560300000187e+04
-3.498743604890000279e+04
-3.498705040500000177e+04
-3.498713790529999824e+04
-3.498730964810000296e+04
-3.498787071380000270e+04
-3.498751511269999901e+04
-3.498750726959999884e+04
-3.498729130479999731e+04
-3.498707650460000150e+04
-3.498697753299999749e+04
-3.498746262040000147e+04
-3.498733051620000333e+04
-3.498708330540000316e+04
-3.498696636209999997e+04
-3.498679670739999710e+04
-3.498711314200000197e+04
-3.498756196069999714e+04
-3.498752931199999875e+04
-3.498727337789999729e+04
-3.498722984819999692e+04
-3.498704317930000252e+04
-3.498708470120000129e+04
-3.498724216639999941e+04
-3.498754808649999904e+04
-3.498757372870000108e+04
-3.498720382589999645e+04
-3.498735517799999798e+04
-3.498739734850000241e+04
-3.498767194809999637e+04
-3.498747242510000069e+04
-3.498764215580000018e+04
-3.498749375750000036e+04
-3.498752084969999851e+04
-3.498732793939999829e+04
-3.498728317309999693e+04
-3.498747466390000045e+04
-3.498754352269999799e+04
-3.498745021109999652e+04
-3.498763837380000041e+04
-3.498745070700000360e+04
-3.498708675280000170e+04
-3.498708916529999988e+04
-3.498712907160000032e+04
-3.498710981010000251e+04
-3.498700401440000132e+04
-3.498674728769999638e+04
-3.498711444289999781e+04
-3.498720674880000297e+04
-3.498715154279999842e+04
-3.498711126140000124e+04
-3.498710263839999971e+04
-3.498730720060000021e+04
-3.498686758849999751e+04
-3.498681861490000301e+04
-3.498689860800000315e+04
-3.498689982120000059e+04
-3.498714098660000309e+04
-3.498699721989999671e+04
-3.498678878899999836e+04
-3.498679745420000108e+04
-3.498667080279999936e+04
-3.498645591409999906e+04
-3.498655900580000161e+04
-3.498647980139999709e+04
-3.498674938750000001e+04
-3.498689567510000052e+04
-3.498710112249999656e+04
-3.498712260770000285e+04
-3.498698831310000242e+04
-3.498703457480000361e+04
-3.498733559519999835e+04
-3.498787717400000111e+04
-3.498741661339999700e+04
-3.498723981579999963e+04
-3.498742190180000034e+04
-3.498742080220000207e+04
-3.498760250670000096e+04
-3.498752272780000203e+04
-3.498747211129999778e+04
-3.498773083809999662e+04
-3.498777142550000281e+04
-3.498747017310000228e+04
-3.498757629370000359e+04
-3.498756808759999694e+04
-3.498746561549999751e+04
-3.498763803329999791e+04
-3.498776366799999960e+04
-3.498776882979999937e+04
-3.498807741540000279e+04
-3.498771875159999763e+04
-3.498770165139999881e+04
-3.498756671849999839e+04
-3.498768720439999743e+04
-3.498753808420000132e+04
-3.498737906089999888e+04
-3.498753610550000303e+04
-3.498762599030000274e+04
-3.498744302459999744e+04
-3.498753485360000195e+04
-3.498745176930000162e+04
-3.498748348750000150e+04
-3.498721987700000318e+04
-3.498683746779999638e+04
-3.498717199360000086e+04
-3.498751541790000192e+04
-3.498750115499999811e+04
-3.498729801659999794e+04
-3.498739594650000072e+04
-3.498710856500000227e+04
-3.498725373969999782e+04
-3.498711362029999873e+04
-3.498721627270000317e+04
-3.498701391460000013e+04
-3.498682391210000060e+04
-3.498659121620000224e+04
-3.498698848449999787e+04
-3.498728160319999733e+04
-3.498730447940000158e+04
-3.498744585309999820e+04
-3.498738283550000051e+04
-3.498710161450000305e+04
-3.498717280500000197e+04
-3.498749808340000163e+04
-3.498736825829999725e+04
-3.498735113200000342e+04
-3.498764026420000300e+04
-3.498745416950000072e+04
-3.498747588410000026e+04
-3.498752478240000346e+04
