-7.648890324739999746e-01 1.192759457739999973e-01 5.198773436760000255e-01 -8.858862320949999480e-01 -1.121988799999999960e-05 -3.297414684159999942e-01 -8.644844697360000163e-01 -4.980646145599999797e-02 4.772329811880000050e-01 -8.631608258490000019e-01 5.802472526500000033e-02 -2.524360431989999820e-01 5.964380470939999457e-01 -2.032403154700000020e-02 5.384293360630000302e-01 7.302984113789999787e-01 -1.713759558000000072e-01 -3.245841213599999775e-01 7.104481889770000169e-01 9.022668887699999973e-02 5.538272691969999828e-01 7.103138692670000198e-01 2.415675702420000126e-01 -3.411049886120000041e-01 -2.596060165210000159e-01 1.680221917020000011e-01 -2.912459558400000148e-01 -4.258217930299999787e-02 4.512227108569999978e-01 -4.406874776290000129e-01 -3.297157161000000003e-02 5.172453297500000102e-02 -3.739395746070000026e-01 7.333960505819999698e-01 -2.478063698840000106e-01 -2.894754645509999835e-01 2.724889736660000006e-01 1.552856245370000110e-01 -3.206679527849999878e-01 3.547576387510000262e-01 -5.772950652839999863e-01 -1.031822348989999971e-01 4.772955226810000062e-01 -2.101350958050000051e-01 -1.317279540000000041e-04 8.336914497340000008e-01 -6.861952401530000412e-01 -5.350536836020000075e-01 1.174467276440000069e-01 -2.504653386460000131e-01 -4.029784129375999946e+00 -3.632484799256999963e+00 -1.847597442620000086e-01 1.994254165150000091e-01 4.961374636399999705e-02 -2.338651111023999807e+00 1.341075523499999922e-01 1.533272791480000119e-01 -2.210564994979999920e-01 4.147509176880999959e+00 4.656651809600000080e-02 -9.180900996099999878e-02 1.240628937280000010e-01 -2.742560828999999947e-03 -1.637438288189999869e-01 1.088447477460000035e-01 -4.008298839000000099e-03 -3.152171485199999762e-02 -5.547820239480000248e-01 1.125693951241000024e+00 -1.510311203949999959e-01 1.535648577519999891e-01 7.211032590200000536e-02 3.944689464056000183e+00 1.478372641250000064e-01 -5.489531806700000127e-02 2.371775806899999867e-02 2.382226473790000076e-01 4.786253903830000045e-01 -3.521283329699999992e-02 7.472682503699999701e-02 9.849635935200000414e-02 1.563506751709999865e-01 1.133610930119999943e-01 4.380616657900000127e-02 -6.328184615500000165e-02 -9.625159455139999931e-01 2.271716875144000003e+00 -1.216886306509999960e-01 1.208249366849999951e-01 1.167872297190000047e-01 2.249528826735999854e+00 1.981340197460000063e-01 6.961439286300000195e-02 -9.856702781999999649e-03 4.713862066310000043e-01 -2.566516069500000136e-02 -3.801075648399999951e-02 1.619164635710000077e-01 1.249909916740000043e-01 5.441727443730000058e-01 2.187248379700000023e-01 1.742417277049999880e-01 -1.609875874929999895e-01 -2.292158391325000100e+00 -2.398802060224999977e+00 -1.763674857410000019e-01 1.615329099560000037e-01 1.062192158200000042e-01 -1.158392063296000085e+00 1.794915385729999868e-01 1.619906174909999941e-01 -2.589684072649999780e-01 2.139464639573000149e+00 -8.974315061650000036e-01 -1.241227072270000009e-01 1.152212606600000050e-01 9.923436440800000036e-02 -7.109326309669999899e-01 1.437649656049999891e-01
-5.115355686950000536e-01 -2.467659256999999925e-03 -4.355084360199999727e-02 -9.899478905220000513e-01 -2.705821906509999764e-01 2.689925210200000069e-02 -8.986424970120000522e-01 1.460754659350000095e-01 -1.955503076020000119e-01 -1.025124563172000069e+00 4.218262534289999865e-01 3.233738369210000241e-01 3.549502862480000132e-01 -1.600334635029999897e-01 2.626942360119999820e-01 9.175968032139999453e-01 -2.889970027550000098e-01 -1.256844872419999870e-01 8.767374400999999873e-01 2.485880370670000006e-01 1.021010216719999975e-01 9.921965372590000332e-01 4.362631718109999945e-01 6.824320195399999345e-02 -7.596386812380000464e-01 -4.345266838619999961e-01 -2.656622458019999855e-01 4.169528604070000255e-01 1.004932430910999930e+00 -7.085748684049999468e-01 -1.618906782669999878e-01 -6.139682421879999463e-01 -7.555060262880000099e-01 9.412143413369999934e-01 1.578390655331000092e+00 -4.629398626690000018e-01 5.085764821279999959e-01 1.150500814433000007e+00 1.861374134650000123e-01 -1.097091938641000075e+00 -1.048984433697000007e+00 2.333846481799999872e-01 2.712779887890000019e-01 4.816152117740000183e-01 5.030510604579999656e-01 -9.961738656400000169e-02 3.547383515659999764e-01 -1.174202517973000015e+00 -4.716962626099999861e-02 -1.315594341880000073e-01 2.900733899430000262e-01 2.004028740608000181e+00 4.351051349800000301e-02 3.350113184060000138e-01 -5.478748979100000333e-02 1.163793540064000043e+00 1.750758864989999941e-01 6.832752714800000016e-02 2.056758616999999900e-02 8.087154181419999865e-01 -1.040851140170000050e-01 1.269380419100000004e-02 -1.634891561099999918e-02 -9.884059537099999793e-02 -2.342739545100000140e-02 1.784576114380000134e-01 1.159857992470000043e-01 -4.630419242099999971e-02 9.843409140890000408e-01 -1.716783060110000037e+00 -1.419900443329999984e-01 2.108591920909999862e-01 -1.401808980470000132e-01 -3.032157455152999948e+00 1.256456121550000027e-01 -1.224135988069999931e-01 2.936812378590000217e-01 -1.720981623851000064e+00 -3.534890971199999843e-01 2.441308368750000068e-01 -3.128566790400000297e-02 4.213461679359999934e-01 -1.570874979182999898e+00 2.411275370729999978e-01 1.303084008629999957e-01 -2.023272259400000009e-02 -6.327070936019999481e-01 -2.958047902850000077e-01 1.541875212580000043e-01 1.092447942710000064e-01 2.098417730159999883e-01 4.271904035979999792e-01 1.247283984010000013e-01 3.526827837600000071e-01 2.182007158940000024e-01 -8.382914946120000321e-01 -9.478741294820000052e-01 3.595323223520000000e-01 1.949344036800000068e-01 3.800031703330000177e-01 7.112199222599999704e-01 4.186913138869999829e-01 2.634468620870000222e-01 3.303379887269999871e-01 1.545940390009999943e-01 1.948830331499999957e-01 -4.759992006699999972e-02 4.861452887400000145e-02 1.490326587739999875e-01 -1.693542217959999874e-01 1.862663355870000093e-01 2.288783161240000030e-01 -3.640221845100000131e-01 5.766918922899999522e-01 -5.837425467289999448e-01 -2.718599012330000231e-01 1.359162696339999976e-01 2.103921776019999912e-01 -1.163034658164000090e+00 -3.358757106199999898e-02
-3.309887205570000157e-01 8.383852897299999551e-02 -5.038484088639999525e-01 -8.825526062270000471e-01 -2.930322548179999931e-01 2.513483602439999798e-01 -6.549846866130000222e-01 6.289356933600000199e-02 -4.694483191330000027e-01 -8.627182485919999699e-01 5.484249809989999447e-01 4.867424211820000068e-01 1.833490063269999915e-01 -6.674204030000000301e-03 -1.064641967230000041e-01 8.725190004099999674e-01 -7.619057599600000119e-02 1.570398703770000126e-01 7.811071275600000030e-01 -3.844203741000000105e-03 -2.402310789150000070e-01 8.953006547740000043e-01 2.506664007000000138e-01 3.518083186059999812e-01 -8.561761970410000089e-01 -8.787648834160000089e-01 1.578735826379999985e-01 5.422795991929999504e-01 9.771044214599999833e-01 -7.098827186130000078e-01 -2.228902989669999946e-01 -2.650007657769999914e-01 -4.210215627480000111e-01 -8.007516612239999887e-01 1.967869934827999989e+00 -6.698751471939999869e-01 3.580543844540000076e-01 1.132072706166000087e+00 7.556358441200000664e-02 -1.377954471598000108e+00 -1.079429942466999970e+00 -1.146439908990000006e-01 1.556189592380000097e-01 6.178469251329999912e-01 6.392375178600000485e-01 2.348394880600000040e-02 4.833486843870000160e-01 -8.299596397590000008e-01 -2.108283006470000054e-01 -5.623407466400000276e-02 4.073846224651999748e+00 3.682642676872000198e+00 1.332119394179999972e-01 4.452598054879999823e-01 -8.467449054400000286e-02 1.889451964392000027e+00 2.493853386579999998e-01 1.579141926069999868e-01 4.790132337900000065e-02 -3.704437388076000204e+00 -5.806571347260000016e-01 -5.750743612700000285e-02 -2.098230977399999919e-01 -1.774123106749999901e-01 -9.425815460099999932e-01 1.998410199200000015e-01 1.438780611959999955e-01 -1.663165024870000008e-01 1.001117926805999980e+00 -1.723601787603999957e+00 -1.782593948329999900e-01 2.049354248939999901e-01 -3.052054597789999879e-01 -3.981587279789999823e+00 1.583604909859999965e-01 -2.311587670809999995e-01 4.031653141239999738e-01 -1.082662722040999892e+00 -3.404693832990000057e-01 3.442762243890000184e-01 -1.830459891379999926e-01 4.376957119500000104e-01 -7.517841059359999800e-01 2.551772126569999966e-01 1.937484820910000127e-01 3.416557866600000021e-02 4.643122297019999789e-01 -1.802807937902999980e+00 2.716419112349999776e-01 9.246357894699999691e-02 1.882105678169999907e-01 -1.555415656599999918e+00 1.330063697420000024e-01 3.688037670870000229e-01 4.051473029009999838e-01 -1.535434756287999969e+00 -6.929086321970000517e-01 4.941337108409999956e-01 1.297078271659999893e-01 3.171732342110000213e-01 -1.480051128379999970e-01 2.752084180189999785e-01 1.235044587840000013e-01 5.660925174130000403e-01 2.238400821523999884e+00 2.372103420970999910e+00 1.485051469070000074e-01 -4.144266528499999935e-02 1.124474707769999998e-01 9.785318272080000268e-01 1.387895908840000025e-01 7.743144356499999381e-02 -4.644653200030000040e-01 -1.101940073480000004e+00 -2.706632557899999944e-02 -3.668965147259999893e-01 2.804969429200000058e-02 1.785412521620000081e-01 -5.683011385930000214e-01 -2.833138747589999951e-01
-1.921015706299999959e-01 1.531305673349999952e-01 -3.820227328119999988e-01 -6.460525033739999978e-01 -1.087072770150000062e-01 -1.392651754460000058e-01 -1.611412810339999946e-01 -4.024108994799999867e-02 7.207814849999999961e-04 -4.411274476340000250e-01 3.541758278129999993e-01 -9.184286047299999867e-02 6.163915434799999843e-02 1.283402787969999959e-01 1.347792823860000100e-01 6.631102201680000308e-01 2.156470697289999960e-01 -5.442355342800000301e-02 4.082536651340000211e-01 -3.856764629669999778e-01 7.930060588100000529e-02 4.814870647710000062e-01 -1.040356079240000037e-01 1.109587964690000039e-01 -9.086105621500000229e-01 -4.537296734190000014e-01 7.716655812670000225e-01 3.138766694569999904e-01 -3.606508567999999748e-02 -9.105550782169999913e-01 5.793481228899999974e-02 -1.424047959700000011e-02 7.491042385799999703e-01 -1.312536649647999987e+00 4.749404970999999628e-03 9.053123757400000082e-02 -1.852636559489999890e-01 2.668265062949999877e-01 -4.276454738120000210e-01 3.087442708999999907e-03 -7.318866248180000422e-01 3.043732973399999875e-02 3.482083783099999830e-02 4.457819282750000167e-01 6.116789078019999604e-01 2.486493828280000040e-01 -1.546982291179999913e-01 -9.838631111159999998e-01 -2.921987307230000108e-01 -5.342085720999999454e-01 6.464189709209999801e-01 -1.626726603128999971e+00 6.335578872800000372e-02 2.451310729099999974e-01 4.057139956300000183e-02 -1.855051048258999913e+00 1.588648916669999911e-01 2.601660532589999963e-01 -3.877915101509999962e-01 -6.832360248869999708e-01 -3.000071245839999734e-01 -1.151939940999999971e-03 -3.040776463129999940e-01 -2.620546074310000084e-01 -9.375446301880000499e-01 1.705314199669999975e-01 6.932183857000000227e-02 -2.626845358670000241e-01 -1.149738394370000000e-01 1.140177205789000059e+00 -2.157330562739999957e-01 -5.119379365400000131e-02 -5.760156237200000223e-02 3.348789503439999926e+00 7.472856642399999805e-02 -3.241978544240000093e-01 3.303031491150000276e-01 9.151477303659999452e-01 4.199119715360000171e-01 7.688384137900000637e-02 -1.916259132789999986e-01 4.013228494819999770e-01 6.988616270540000119e-01 2.311379593869999916e-01 4.709288457199999750e-02 1.984304888279999901e-01 9.286278815080000193e-01 1.273125300100999890e+00 1.263542227270000040e-01 1.829784987699999838e-02 2.667907231639999877e-01 -9.363592554570000503e-01 -8.044543521199999658e-02 3.527441966470000190e-01 3.755990614229999802e-01 -7.478174835269999488e-01 -1.458431864080000084e-01 5.524440206309999546e-01 -2.246782744130000065e-01 -5.346319649899999860e-02 -8.612306225229999779e-01 -7.536961103700000331e-02 -1.651317502859999953e-01 7.731126361739999453e-01 9.866224896640000130e-01 1.400760976450000084e-01 1.997675857110000064e-01 -3.215676774619999900e-01 2.229799821519999892e-01 -3.884617755790000238e-01 4.664258612899999795e-02 -1.614207907090000060e-01 -1.874535249909999868e-01 -7.108373977649999897e-01 3.329646491470000247e-01 -3.486280410109999783e-01 -1.415589312099999886e-01 -4.625324176999999828e-03 6.330255344030000231e-01 -3.643281664970000056e-01
-9.177270878000000354e-02 -1.339367879679999873e-01 -1.519775630959999957e-01 -4.760863110460000214e-01 -2.079238041839999995e-01 -6.528643285680000297e-01 2.263016701449999946e-01 1.705134846309999952e-01 5.606939901399999870e-01 -2.118813691149999956e-01 4.069250958010000030e-01 -6.198649788369999802e-01 2.119509653700000010e-02 -1.281263221070000069e-01 5.126791487230000222e-01 4.958878352619999763e-01 1.253522547439999968e-01 -4.342858485810000002e-01 1.674230937960000110e-01 -3.056752276809999724e-01 4.101675050499999919e-01 2.559424837689999732e-01 -3.452966859199999711e-02 -1.374240234459999932e-01 -5.699278068299999944e-01 3.614009962559999734e-01 3.220684005830000141e-01 2.133894456400000153e-02 -1.253736548999000000e+00 -1.001539490921999898e+00 3.494608603200000108e-01 -7.861013470109999846e-01 9.444952294949999771e-01 -9.183957462309999542e-01 -5.089755309610000111e-01 9.292785552119999792e-01 -4.211215311809999862e-01 -3.275829968030000150e-01 -7.339060938420000069e-01 3.962749683910000154e-01 -2.361701564420000121e-01 4.825648486849999919e-01 -1.175791998279999973e-01 1.084640009889999979e-01 7.341134334150000162e-01 5.113814935370000203e-01 -4.017746804840000019e-01 -1.022654710419000024e+00 -3.478348764279999839e-01 -9.415235113109999832e-01 -2.311633377246999910e+00 -3.130160351789999851e+00 -8.260637211900000165e-02 1.652581563970000056e-01 1.779671972019999937e-01 -1.828517448396000056e+00 7.868575520899999398e-02 1.751459573040000106e-01 -8.876302537350000410e-01 2.596551702494999780e+00 4.891681111500000012e-02 1.873087470079999872e-01 -2.074839625659999909e-01 -1.861743952880000053e-01 5.127848476170000502e-01 2.292041177270000007e-01 6.805531218999999639e-03 -2.639391542710000094e-01 -1.193291449026999906e+00 2.036664919575000177e+00 -1.382345014520000026e-01 -1.873051833059999893e-01 8.485081789600000535e-02 4.272866168520000230e+00 4.495430492599999939e-02 -1.704030816550000105e-01 1.964485074900000072e-01 1.964011202600999928e+00 3.579960184689999769e-01 -2.558836646459999864e-01 7.502047591999999772e-03 3.050768288869999956e-01 2.949893840580000148e-01 2.470343559110000087e-01 -9.736673097200000682e-02 3.061278609149999941e-01 -1.146576868780000008e-01 1.648641827400000093e+00 -1.384149950230000037e-01 -4.141952091599999941e-02 2.870243675399999916e-01 1.608253120279999893e-01 -2.511287909670000262e-01 4.084241660819999953e-01 1.405082403129999935e-01 8.597993354649999809e-01 1.103472193440000054e-01 4.542972305199999838e-01 -6.305012616399999770e-01 -3.935329913350000264e-01 -2.008271931070000071e-01 -3.023408672389999996e-01 -2.836232290840000059e-01 8.341097588470000046e-01 -7.481451379050000350e-01 -1.389021860401000064e+00 2.106170124500000018e-01 -3.558588047390000009e-01 3.921440547489999928e-01 -1.180407900472000060e+00 -1.503925550740000117e-01 -2.826719945880000195e-01 3.740274419690000074e-01 6.120597358299999513e-01 7.521246704020000395e-01 -2.333218599119999959e-01 -1.860188995610000118e-01 -1.497826489519999971e-01 1.358273581519999995e+00 -2.664272906810000174e-01
-4.451885501999999772e-03 -5.507483225139999661e-01 -2.373712138329999999e-01 -3.560598946549999866e-01 -4.658327935639999806e-01 -7.180574392480000290e-01 3.476069711590000222e-01 4.719507949410000069e-01 6.543761364669999914e-01 -3.119257154200000270e-01 6.801340354639999752e-01 -5.483786339770000406e-01 6.379609252999999917e-03 -4.799126940810000130e-01 3.266898180069999769e-01 3.779153984690000190e-01 -1.520990583630000004e-01 -3.832856891329999849e-01 1.195375640470000000e-01 1.291435479499999928e-01 1.175664607139999956e-01 3.002447818299999738e-01 2.627417247370000264e-01 4.072516197199999716e-02 2.414596344399999941e-02 5.886245569129999744e-01 8.905315685499999578e-02 -2.877453971869999849e-01 -5.934395740619999859e-01 -8.377043217409999576e-01 1.917562099850000090e-01 -1.758427510850999909e+00 1.034440839373000021e+00 -6.303872677990000062e-01 -3.290561329360000009e-01 1.964894695570000016e-01 -2.268422841939999879e-01 -6.507318868689999647e-01 -2.466327502729999954e-01 1.672722817117000105e+00 -2.339007309549999969e-01 6.000431252569999874e-01 -4.395387003000000153e-02 -3.119714953239999811e-01 6.518847514610000005e-01 -2.320775938509999914e-01 7.133885031369999741e-01 -2.531961909909999919e-01 -3.827253233089999984e-01 -9.241994928050000224e-01 -1.441448341310999970e+00 1.333510804320000021e-01 -1.240704746499999948e-02 -2.358122735979999995e-01 1.757906403820000130e-01 2.214517933677000006e+00 2.506122686589999926e-01 -2.982754817839999850e-01 -9.206870809910000508e-01 1.209618658040999994e+00 3.644639473399999968e-02 3.801477171270000177e-01 -1.301858676990000074e-01 8.462185989300000100e-02 1.625097558713000101e+00 3.647315243550000030e-01 3.589372706999999912e-02 -1.769054078160000043e-01 -7.050547646270000079e-01 5.227223385329999861e-01 3.167342057099999802e-02 -1.319128209379999972e-01 4.531661857299999763e-02 -1.839584459546000028e+00 3.028496332519999834e-01 1.558856057149999863e-01 1.144642210840000063e-01 1.021927956270000104e+00 -2.396044296260000095e-01 -3.717916523040000198e-01 1.846415088339999899e-01 5.770024312199999866e-02 -4.363195932510000041e-01 1.690052673340000089e-01 -1.601331092670000011e-01 2.649680740229999887e-01 -9.020401961830000204e-01 -1.579509193595000083e+00 -2.830652437119999809e-01 3.245714588299999925e-02 1.951318390139999970e-01 5.328866041480000426e-01 -1.766693981549999903e-01 2.733753484920000143e-01 -2.074825139420000131e-01 1.872229552707999956e+00 3.090807523179999738e-01 1.325762348500000021e-01 -6.507679686780000194e-01 -4.947519992030000036e-01 1.049910944275999958e+00 -4.117827272899999835e-01 -7.326770345899999426e-02 6.171491498140000420e-01 -9.381469402509999833e-01 -7.321999401600000068e-01 1.619554706790000131e-01 -5.990756870800000022e-02 4.476982352089999839e-01 -1.054014982359999936e-01 -2.801728015080000023e-01 -1.323070170439999971e-01 5.618279502699999872e-01 5.373769680600000154e-01 8.571685078070000463e-01 -7.069903262000000466e-02 -1.395837059320000073e-01 -1.842744005130000085e-01 3.415047798349999941e-01 -2.286077889839999988e-01
1.319474791370000011e-01 -6.305692845999999463e-01 -5.592883708250000474e-01 -1.835882512660000077e-01 -4.147403407229999783e-01 -3.282986688000000264e-01 3.404395807749999725e-01 4.384736319599999987e-01 3.234860112819999967e-01 -3.966585025789999830e-01 6.617245193680000304e-01 -1.248262014629999972e-01 -5.442974077700000329e-02 -4.062649888800000109e-01 -1.804681240619999960e-01 1.417018005129999925e-01 -9.565657431099999775e-02 1.915715061799999966e-02 1.148424497250000037e-01 1.584177076609999957e-01 -4.807479009260000047e-01 2.693062221279999835e-01 1.767663943309999985e-01 4.492666154539999845e-01 5.053099319460000460e-01 1.942149244340000136e-01 5.714421134799999719e-02 -7.717130727440000282e-01 1.220356296250000028e-01 -2.730215387000000105e-01 -1.458394774610000111e-01 -9.049076991250000201e-01 1.055774022922000066e+00 1.315352870729999957e-01 1.631409861427999930e+00 -1.375065695098999896e+00 -9.464632093300000271e-02 -5.679755646280000292e-01 2.438114399662000054e+00 1.461620933337000050e+00 -7.163102358880000242e-01 -1.301183110490000128e-01 -1.107521170460000065e-01 -4.633884543460000116e-01 1.954462779770000103e-01 -4.169020783969999977e-01 8.211219177159999605e-01 8.325701276800000217e-02 -4.292211871880000085e-01 -5.484777892990000403e-01 6.441619777699999494e-01 1.863674779424999928e+00 3.855593383300000287e-02 -4.494949402349999734e-01 2.664460443799999967e-02 2.388398453498000062e+00 3.174029205289999878e-01 -5.816913333900000094e-01 -5.017191741919999615e-01 -1.141210045867000034e+00 7.117006091399999401e-02 4.143921938819999928e-01 -1.489233865269999901e-01 1.805856487339999872e-01 6.026737272319999672e-01 3.041697907729999928e-01 9.449935454199999418e-02 -1.632558854399999981e-02 1.073901237622999938e+00 -1.529713821419000030e+00 2.731423483259999840e-01 8.955183940199999693e-02 1.118358189290000054e-01 -4.861347462350999571e+00 6.947658222329999855e-01 4.630599271840000197e-01 4.750724257100000236e-02 -2.346831084744999796e+00 -3.096769779629999775e-01 -3.595983551849999960e-01 1.784775341120000136e-01 -1.837502081400000098e-01 4.814879904700000018e-02 -1.723906763080000071e-01 -3.226421690369999928e-01 3.879060710189999872e-01 -4.866525555100000011e-02 -1.813274671479000011e+00 -1.693862903630000138e-01 3.698515901250000182e-01 1.028016353409999945e-01 6.146256127239999589e-01 -2.363499236030000006e-01 8.681513579999999841e-02 -3.850136989940000087e-01 8.066088473720000041e-01 5.134300154149999962e-01 -1.237647242310000034e-01 -1.284037616070000110e-01 -3.390044354919999892e-01 6.232922119739999767e-01 -4.222520155189999902e-01 1.576605723810000081e-01 2.314712581070000053e-01 8.012533553000000461e-03 3.702196628739999884e-01 8.524577612599999743e-02 2.801820468410000098e-01 2.822006749970000228e-01 1.027226106604000044e+00 -1.820256130360000113e-01 1.759909250599999975e-01 3.768096055660000165e-01 -5.404513130639999607e-01 8.514629990100000545e-02 6.935457688700000234e-02 -1.298743132959999935e-01 1.065564740000000043e-03 -2.674682782580000140e-01 9.975297916999999528e-03
2.248931535199999998e-01 -2.682285444470000058e-01 -7.287651484010000402e-01 9.735043571500000270e-02 -1.435099701579999887e-01 1.508687335699999965e-02 2.946666793209999913e-01 8.686565609700000468e-02 1.650011638979999862e-01 -1.952330528929999975e-01 4.804415791860000007e-01 -2.016005946800000087e-02 -6.362863009899999422e-02 3.792985997999999935e-03 -4.315462151760000031e-01 -2.943417951469999849e-01 1.156812653339999997e-01 3.615900551819999920e-01 2.535142365070000015e-01 -3.325324542279999851e-01 -6.698102726239999472e-01 -7.771221633000000018e-02 -1.033196657530000007e-01 6.207541437400000417e-01 7.496955198370000018e-01 1.203794431000000014e-03 -3.607264139299999894e-01 -9.235590615109999790e-01 6.700402677199999990e-02 1.435863073363000009e+00 -2.927983389259999902e-01 1.705304095359999883e-01 1.643623888179999992e-01 4.161316001900000061e-01 3.384062675460000058e-01 -2.918365553219999797e-01 -2.583837290709999901e-01 -4.692309762240000071e-01 1.989542369435999936e+00 4.967216339039999817e-01 -3.388662498359999997e-01 -1.049866083531999950e+00 -1.321933963539999868e-01 -4.249542324450000241e-01 -5.301460923500000283e-02 -7.442624985589999520e-01 1.777100296028000015e+00 3.211723768399999956e-01 -4.339308226829999837e-01 -4.716083618800000210e-02 1.360924647737000059e+00 8.466347606409999615e-01 -2.395262223100000018e-02 -6.750031009739999588e-01 -2.388537042760000007e-01 -2.120152736827999984e+00 -1.370360130069999960e-01 -5.230397646769999742e-01 -1.351023538099999921e-01 -1.574940370993999972e+00 4.448680178930000118e-01 2.992662453520000265e-01 -1.370179671089999940e-01 1.053523730990000018e-01 -1.343775557982000102e+00 1.495160216799999997e-01 6.682809458199999442e-02 2.628572561709999755e-01 1.501243509093999950e+00 -1.153664964949999927e+00 2.606111711099999839e-01 -1.111229562110000041e-01 8.728107311900000498e-02 -1.064151585430000019e-01 -7.304299730200000673e-02 4.355861866049999809e-01 -1.252087591519999987e-01 -1.678697760414999962e+00 4.836044771760000249e-01 -3.435961481700000042e-01 1.509633013220000042e-01 -1.673275158099999937e-01 1.044544703889999981e+00 -3.619708659479999868e-01 -4.359728664090000150e-01 4.040725903719999956e-01 1.087555320074000020e+00 1.239665387954999920e+00 6.678913436000000203e-02 6.737259577440000147e-01 -2.340527692700000023e-02 5.569079458779999658e-01 -5.408365279650000357e-01 -2.481508678930000045e-01 -1.754953901230000002e-01 -1.886524276390999955e+00 2.268585345470000014e-01 -1.607427301069999925e-01 4.649511075430000084e-01 -3.649788652899999680e-02 -4.707294421709999899e-01 -1.570952680930000067e-01 1.746174842160000129e-01 -1.333718611849999958e-01 6.852537330179999664e-01 1.999177928599999987e-01 -3.451734798199999898e-02 2.245491779750000139e-01 -5.613252976400000260e-02 6.642260388970000484e-01 4.532102751599999951e-02 3.649362462260000162e-01 4.896336457229999994e-01 -9.281123179500000431e-01 -1.048583110909000027e+00 1.462276595149999969e-01 4.884108616499999861e-02 1.385483418029999914e-01 6.470036536699999563e-02 4.009084455460000251e-01
3.336121019669999743e-01 3.806187129799999680e-02 -4.956143229330000066e-01 4.194537414780000195e-01 -2.859265024899999841e-02 -1.155853385769999991e-01 4.226988449869999998e-01 -1.210847748320000028e-01 6.430859390850000024e-01 -6.353314409499999371e-02 4.171971716869999902e-01 -3.462201910589999820e-01 -6.344090313899999889e-02 6.050477135199999745e-02 -1.883970566010000069e-01 -7.159255900859999855e-01 9.449053211300000032e-02 2.651911549050000039e-01 5.178601926089999585e-01 -4.963847732380000100e-01 -3.221407157989999992e-01 -3.434616461050000180e-01 -1.484538023049999933e-01 4.418412867900000096e-01 7.187810528500000462e-01 -3.538833861380000223e-01 -7.982164315449999936e-01 -5.873451684720000232e-01 5.206997958100000046e-02 1.650721543108000011e+00 -4.347874090700000194e-01 2.356700294219999936e-01 -8.173849112479999457e-01 1.570821078400000056e-02 4.646146371189999735e-01 2.334775254819999812e+00 3.188214563700000198e-02 1.548052473460000134e-01 -7.136663804159999458e-01 3.197942325179999878e-01 7.283564350940000542e-01 -7.503205183090000396e-01 -2.861161251900000077e-02 -3.447868642429999797e-01 -1.008626079509999940e-01 -8.679597264180000105e-01 5.827236793710000029e-01 4.023812016919999790e-01 -4.575837671199999707e-02 3.252606762049999878e-01 6.280034157100000680e-02 -1.635014073749999908e-01 -1.504243795159999897e-01 -7.577598605119999498e-01 -3.646679309490000187e-01 -3.058696401175999835e+00 -6.333216679359999768e-01 -5.643237406229999475e-01 6.188516803699999763e-02 1.170948988720000028e-01 2.255201465130000082e-01 2.703204871159999856e-01 1.352022405019999984e-01 1.130659671630000057e-01 -1.493064292384999936e+00 -3.573191001800000294e-02 -2.517860804000000147e-02 2.329720379670000008e-01 -6.613387650869999579e-01 4.500002852200000319e-02 1.045256811729999985e-01 -4.383082262199999857e-01 -1.061067809499999931e-02 2.770001051232000133e+00 -2.830110499269999913e-01 5.777868726000000288e-02 -5.922295744319999722e-01 1.674068666388000004e+00 5.507984513910000324e-01 -2.753508780410000023e-01 2.249403096539999980e-01 4.358755965999999704e-02 4.960354736770000161e-01 -1.772682163829999991e-01 -1.370009902700000115e-01 9.359054718100000281e-02 3.670539657319999982e-01 2.197960505968000078e+00 1.053364704580000005e-01 4.643894438899999755e-01 -1.425374882359999873e-01 1.226257250599999994e-02 -6.699162422850000187e-01 -2.278067396929999988e-01 -7.464307845999999975e-03 -2.057001870430999801e+00 -4.007784827249999959e-01 -1.810179823359999995e-01 4.751491244520000268e-01 3.346898820440000200e-01 -6.809160708579999888e-01 3.411352886019999864e-01 -8.965374447000000468e-02 -3.804023275169999829e-01 2.732093842100000169e-01 1.028951662650000043e-01 -2.704751109599999870e-01 -3.915668151800000274e-02 -2.782259327530000048e-01 1.377900596530000077e-01 1.412800018539999980e-01 2.490273331669999868e-01 7.783618678410000324e-01 -2.076696576379999937e-01 -9.981720502219999513e-01 2.377854794469999866e-01 3.193531690129999823e-01 -1.468328807170000139e-01 1.286056491950000047e-01 2.752194072510000256e-01