6.987715861067749223e+00 2.442184071187143007e-02 1.075716933086524607e-01 2.442184071187143007e-02 7.446424685392986298e+00 -8.074220922334329753e-01 1.075716933086524607e-01 -8.074220922334329753e-01 9.290311518507541777e+00
1.488856110382336340e+01 -5.040323856823623050e-01 -1.341395455838424178e-01 -5.040323856823623050e-01 1.543638316072303596e+01 -3.650809186306231968e-01 -1.341395455838424178e-01 -3.650809186306231968e-01 1.186070811856967033e+01
1.749235970523056238e+01 -8.507550836877313394e-01 -3.542387187366945467e-01 -8.507550836877313394e-01 1.868169565829421330e+01 -1.302252205538421692e-01 -3.542387187366945467e-01 -1.302252205538421692e-01 1.789010516361805259e+01
5.624720604200593721e-01 -1.048603146719865986e+00 -1.232434538421129488e+00 -1.048603146719865986e+00 6.536543648133694262e+00 4.771485758164938362e-01 -1.232434538421129488e+00 4.771485758164938362e-01 3.761394239105487980e+00
-7.714780527652872699e+00 -8.371604990267395019e-01 -1.264016782957630536e+00 -8.371604990267395019e-01 1.163253067403326790e+00 6.778827578890219696e-01 -1.264016782957630536e+00 6.778827578890219696e-01 -6.784548768255645790e+00
-9.363352694648694907e+00 -5.411056511967111682e-01 -6.537070153306718812e-01 -5.411056511967111682e-01 8.841666178150671129e-01 3.657181174087671682e-02 -6.537070153306718812e-01 3.657181174087671682e-02 -1.127514578382013788e+01
-8.534967093654968195e+00 -5.576390142211188339e-01 -1.109609517721493965e+00 -5.576390142211188339e-01 -1.574369223103557092e+00 -1.231879146724274232e+00 -1.109609517721493965e+00 -1.231879146724274232e+00 -9.299989678872965015e+00
-1.441176816212985834e+01 -7.361853376995800557e-01 -1.027072676834046794e+00 -7.361853376995800557e-01 -1.600209646597632940e+01 -9.484722341083481334e-01 -1.027072676834046794e+00 -9.484722341083481334e-01 -9.193023572062635651e+00
-1.860100954324378364e+01 -6.859464622516703303e-01 5.525178973469295762e-01 -6.859464622516703303e-01 -1.987603272390851572e+01 2.176201468890083535e-02 5.525178973469295762e-01 2.176201468890083535e-02 -1.348457464544443418e+01
-1.635014724609771264e+01 -4.742662980304062081e-01 1.395232277611563987e+00 -4.742662980304062081e-01 -1.521255023242781235e+01 1.076813774216909048e+00 1.395232277611563987e+00 1.076813774216909048e+00 -1.363283453614455532e+01
-1.135302540192060405e+01 -4.415874816625574295e-02 1.303301301010374669e+00 -4.415874816625574295e-02 -1.011834589089851555e+01 2.409539483091203416e-01 1.303301301010374669e+00 2.409539483091203416e-01 -1.261488371106610451e+01
-8.455980827654466125e+00 -1.637919110299899395e-01 3.813107697880018243e-01 -1.637919110299899395e-01 -1.681933221365956044e+01 -1.302486358751689943e+00 3.813107697880018243e-01 -1.302486358751689943e+00 -8.708950237707558273e+00
-1.725029557143948011e+00 -7.874818956584915819e-01 7.137181440743410876e-01 -7.874818956584915819e-01 -1.489922009736343611e+01 -1.227055814765401154e+00 7.137181440743410876e-01 -1.227055814765401154e+00 -7.210205467577775806e+00
2.764425472567078490e+00 -1.133435113601890087e+00 1.090165867543277045e+00 -1.133435113601890087e+00 -8.577822732924419213e+00 -4.056736088328053991e-01 1.090165867543277045e+00 -4.056736088328053991e-01 -6.652129370692335897e+00
5.093863553183844317e+00 -1.050997185192954708e+00 6.918323123997233148e-01 -1.050997185192954708e+00 9.807057270085588474e-01 2.816472773098099500e-02 6.918323123997233148e-01 2.816472773098099500e-02 -4.574398143613411349e+00
2.258598543203593323e+00 -1.337050777958060266e+00 -6.126519371820094984e-01 -1.337050777958060266e+00 7.653508331343172877e+00 -8.413679571551594405e-01 -6.126519371820094984e-01 -8.413679571551594405e-01 -1.294682026472107061e+00
5.050843214214178367e+00 -1.894950891995542230e+00 -1.550453674398311499e+00 -1.894950891995542230e+00 3.243233037536727981e+00 -3.640309816040454560e-01 -1.550453674398311499e+00 -3.640309816040454560e-01 4.579219563454610231e+00
9.854786504590220986e+00 -1.929481118019782615e+00 -2.221299840129206782e+00 -1.929481118019782615e+00 5.964731309829915951e+00 1.187720576485285645e-01 -2.221299840129206782e+00 1.187720576485285645e-01 7.312192748734814174e+00
1.411066158654143265e+01 -1.502917465638317962e+00 -3.011680381945080587e+00 -1.502917465638317962e+00 8.661692420037425677e+00 -3.953998859457495962e-01 -3.011680381945080587e+00 -3.953998859457495962e-01 8.609885228425222081e+00
1.396418155564342811e+01 -6.432166335882566477e-01 -4.132219132684527452e+00 -6.432166335882566477e-01 3.310874270830353794e+00 -8.626564563991272472e-01 -4.132219132684527452e+00 -8.626564563991272472e-01 6.275143431711830644e+00
1.651076536127298411e+01 3.859782448630978413e-01 -4.649541756182732577e+00 3.859782448630978413e-01 3.942829342653184632e+00 -1.154740419951912234e+00 -4.649541756182732577e+00 -1.154740419951912234e+00 2.901951756998208065e+00
2.065653518580842629e+01 1.323120320477568113e+00 -3.783771315591749840e+00 1.323120320477568113e+00 3.178415642640051164e+00 -6.217456135634610304e-01 -3.783771315591749840e+00 -6.217456135634610304e-01 2.107855050013292875e+00
1.251903755651555095e+01 1.426365777582930372e+00 -2.070805922312361602e+00 1.426365777582930372e+00 -6.016005272611377741e-01 2.475651825299744202e-01 -2.070805922312361602e+00 2.475651825299744202e-01 -1.211445412616072304e+00
1.989206830861360631e+00 8.801281651109806869e-01 -4.261696921755782075e-01 8.801281651109806869e-01 -1.550649013209558502e+00 1.486424182051369947e+00 -4.261696921755782075e-01 1.486424182051369947e+00 -4.641589151758575227e+00
-5.665535821424977136e+00 4.508790340284614118e-01 7.361132565967513086e-01 4.508790340284614118e-01 -8.730226972655286133e+00 1.216902675023297853e+00 7.361132565967513086e-01 1.216902675023297853e+00 -6.771094343826356443e+00
-1.139459090662283280e+01 4.112791864578833056e-01 1.174708196566754070e+00 4.112791864578833056e-01 -1.288847609103321723e+01 4.397187815477394124e-01 1.174708196566754070e+00 4.397187815477394124e-01 -1.054760847680538660e+01
-1.297631600397158991e+01 5.058371718720960919e-01 5.235730703097885019e-01 5.058371718720960919e-01 -9.569921796636753797e+00 2.625915709496430828e-01 5.235730703097885019e-01 2.625915709496430828e-01 -1.220957727563382811e+01
-1.191087643082248881e+01 1.929530612480529761e-01 -1.031435774988603171e+00 1.929530612480529761e-01 -5.023324109651184699e+00 5.404588440586854947e-01 -1.031435774988603171e+00 5.404588440586854947e-01 -1.171160280944898346e+01
-1.388578576278480625e+01 -1.192203883526328639e-01 -2.309511310305804699e+00 -1.192203883526328639e-01 -4.521268089655335665e+00 1.560425969537269086e+00 -2.309511310305804699e+00 1.560425969537269086e+00 -1.364067071513529328e+01
-1.478866800658754954e+01 -6.733889027486857914e-01 -2.839824013166102556e+00 -6.733889027486857914e-01 -2.736296462168009924e+00 2.199533905614199369e+00 -2.839824013166102556e+00 2.199533905614199369e+00 -1.289567815671636097e+01
-1.095868108071604041e+01 -3.569771642149167229e-02 -2.458105449103777485e+00 -3.569771642149167229e-02 -3.649738686145555633e+00 1.083823455773464062e+00 -2.458105449103777485e+00 1.083823455773464062e+00 -8.916131130792701143e+00
-4.189516382157092877e+00 1.449160980913935859e+00 -1.097628582022954991e+00 1.449160980913935859e+00 -4.245026646369486345e-01 2.532698848841090644e-01 -1.097628582022954991e+00 2.532698848841090644e-01 9.169234829149277566e-01
4.523547081749953319e-02 1.858156088178475773e+00 7.416417586945810159e-02 1.858156088178475773e+00 3.476793917597011063e+00 -4.946345678538580093e-01 7.416417586945810159e-02 -4.946345678538580093e-01 3.172629064448554193e+00
1.169471978059841044e+00 6.019300817039645590e-01 3.099638804092690880e-01 6.019300817039645590e-01 -8.573437041290917771e-01 -1.012653314485294498e+00 3.099638804092690880e-01 -1.012653314485294498e+00 1.222818005764243710e+00
2.713448488342612208e+00 7.786466369769114160e-02 -5.750705090250822771e-01 7.786466369769114160e-02 2.330289137347686390e-01 -9.286163658808745947e-01 -5.750705090250822771e-01 -9.286163658808745947e-01 2.579654070460692949e+00
7.199678360625900275e+00 7.292388628791168781e-02 -1.162224069535802595e+00 7.292388628791168781e-02 6.252040206854448279e+00 -7.943386326437626987e-01 -1.162224069535802595e+00 -7.943386326437626987e-01 5.718480896654260626e+00
5.182553130103306316e+00 -2.198514961478182372e-01 -3.827301115754603855e-01 -2.198514961478182372e-01 3.973109724340475157e+00 -4.203999132583104981e-01 -3.827301115754603855e-01 -4.203999132583104981e-01 8.854837817001566691e+00
1.041501701181388295e+00 -3.401225812813861160e-01 1.010774937628089676e+00 -3.401225812813861160e-01 -3.584585963300119249e-01 -1.168468696941202256e-01 1.010774937628089676e+00 -1.168468696941202256e-01 8.454011244891578514e+00
1.742753397238686608e+00 -1.734523116069904836e-01 1.459186752750783800e+00 -1.734523116069904836e-01 3.041544291268972966e+00 -5.620411367849851292e-01 1.459186752750783800e+00 -5.620411367849851292e-01 5.047041000945867495e+00
4.895287720201786819e+00 3.470544323648541152e-01 9.138395001749196611e-01 3.470544323648541152e-01 7.804472512544133878e+00 -1.823569508279519802e+00 9.138395001749196611e-01 -1.823569508279519802e+00 1.010335941144821614e+00
5.987440087133413691e+00 1.403924992525272808e+00 1.323425179989978495e-01 1.403924992525272808e+00 1.146257870461900019e+01 -3.288139392773154590e+00 1.323425179989978495e-01 -3.288139392773154590e+00 -1.020861603512321469e+00
1.224941452949247500e+00 1.971009521821460497e+00 -2.346430926753989843e-01 1.971009521821460497e+00 4.253395612168094253e+00 -2.447698798939289322e+00 -2.346430926753989843e-01 -2.447698798939289322e+00 -2.612819616163113867e+00
-5.776457972552702103e+00 2.217575511658825604e+00 -7.304280262540530089e-02 2.217575511658825604e+00 -6.895201508690763426e+00 -1.626871165700516597e+00 -7.304280262540530089e-02 -1.626871165700516597e+00 -6.797759216161018081e+00
-1.001507903993165982e+01 2.464042063320441400e+00 -4.483584525647802549e-02 2.464042063320441400e+00 -1.193661181387651560e+01 -1.985968159209721140e+00 -4.483584525647802549e-02 -1.985968159209721140e+00 -7.838696573358586939e+00
-1.012375867009253128e+01 2.163316006872199271e+00 -3.649825362708507548e-01 2.163316006872199271e+00 -1.134269598510888599e+01 -2.765854442735978136e+00 -3.649825362708507548e-01 -2.765854442735978136e+00 -6.911165094934615283e+00
-8.193212713618173382e+00 1.038104253922269571e+00 -7.943686738144898341e-01 1.038104253922269571e+00 -8.064139848283522483e+00 -3.481564940577051015e+00 -7.943686738144898341e-01 -3.481564940577051015e+00 -5.109326976559066757e+00
-4.124219912463122917e+00 3.666066089771981007e-01 -9.607601172364671482e-01 3.666066089771981007e-01 -8.215168227200871698e+00 -3.059898445505756293e+00 -9.607601172364671482e-01 -3.059898445505756293e+00 -2.931589113599705421e+00
-4.005416679905057009e+00 1.033039124490830796e+00 -1.330309079826622387e+00 1.033039124490830796e+00 -9.794702564812981294e+00 -1.086187636378722621e+00 -1.330309079826622387e+00 -1.086187636378722621e+00 -3.556046963820352680e+00
-5.669723614415883794e+00 1.916043194156507923e+00 -5.458870973511467106e-01 1.916043194156507923e+00 -9.937161115970948089e+00 4.234685022858646758e-02 -5.458870973511467106e-01 4.234685022858646758e-02 -3.990668740999104180e+00
-2.639938087508959974e+00 2.561921233585789714e+00 8.359251974048300671e-01 2.561921233585789714e+00 -6.655059215442164167e+00 -9.755980702195896637e-01 8.359251974048300671e-01 -9.755980702195896637e-01 -4.589072661274681053e+00
4.251323957015056720e+00 2.518646828215567179e+00 2.205984121048173652e+00 2.518646828215567179e+00 -1.789307646154731923e+00 -1.700392673248394049e+00 2.205984121048173652e+00 -1.700392673248394049e+00 4.443396553563435658e-01
9.011632635367194055e+00 2.049640292498179139e+00 2.541422176022965385e+00 2.049640292498179139e+00 -9.073010975545277024e-01 -2.092003411232341570e+00 2.541422176022965385e+00 -2.092003411232341570e+00 -1.719179501073026528e-01
9.889386299770961841e+00 2.424808192100024407e+00 1.744088851622478398e+00 2.424808192100024407e+00 -9.049981598215066647e-01 -2.168370885066362330e+00 1.744088851622478398e+00 -2.168370885066362330e+00 -2.476690902846537590e+00
6.841211101627906466e+00 2.499477513850369093e+00 6.002469811727726423e-01 2.499477513850369093e+00 -3.687047907228174215e-01 -2.345206017848915359e+00 6.002469811727726423e-01 -2.345206017848915359e+00 4.442473008491470976e-01
4.355386796117044490e+00 1.782150761466131161e+00 -4.557983311244756530e-01 1.782150761466131161e+00 1.115110208087365384e+00 -2.766108181512092035e+00 -4.557983311244756530e-01 -2.766108181512092035e+00 -1.140395822344160287e-01
4.038910176644559868e+00 8.721032558629183695e-01 -1.506736598826529328e+00 8.721032558629183695e-01 4.259364620622928754e+00 -2.740215250645429812e+00 -1.506736598826529328e+00 -2.740215250645429812e+00 1.385485640205803781e+00
3.188133136147654589e+00 1.333005670282598754e-01 -1.340000576201664684e+00 1.333005670282598754e-01 8.481115556650689058e+00 -2.521633655832630883e+00 -1.340000576201664684e+00 -2.521633655832630883e+00 6.548932076611259312e+00
-1.397428657518391626e+00 4.630250493269833512e-01 6.522836696098151255e-02 4.630250493269833512e-01 5.865600427031950836e+00 -1.778602120359772387e+00 6.522836696098151255e-02 -1.778602120359772387e+00 -4.178095743285591135e-02
-3.940221218500747469e+00 1.879422608801049943e+00 -2.293189182350958699e-01 1.879422608801049943e+00 3.485823531423837718e+00 9.249292234937495083e-02 -2.293189182350958699e-01 9.249292234937495083e-02 -2.204733342455600376e+00
-4.192014317400059586e-01 2.705760015874576929e+00 -4.967330851006791503e-01 2.705760015874576929e+00 5.093284124856478634e+00 1.834887635905182446e+00 -4.967330851006791503e-01 1.834887635905182446e+00 -3.584893937617953164e+00
-5.127269805805558800e-01 2.483960996361158191e+00 1.302310679523263348e-01 2.483960996361158191e+00 -5.854201003134624770e-01 2.206184234144915379e+00 1.302310679523263348e-01 2.206184234144915379e+00 -6.130228820778481413e+00
-6.910280099898346684e+00 2.300967570194107026e+00 4.171825401426147994e-01 2.300967570194107026e+00 -6.619409492046918864e+00 2.872470787902305922e+00 4.171825401426147994e-01 2.872470787902305922e+00 -7.310635574443563378e+00
-8.691012225688835358e+00 1.962815517625036144e+00 4.529137876013957786e-01 1.962815517625036144e+00 -7.154533436865071039e+00 2.576379353350666701e+00 4.529137876013957786e-01 2.576379353350666701e+00 -9.147693288645376342e+00
-1.849001193459258729e+00 1.269524375902389535e+00 3.177817223689851089e-01 1.269524375902389535e+00 -6.377274133265784961e+00 1.163749135196052276e+00 3.177817223689851089e-01 1.163749135196052276e+00 -8.892807577101025984e+00
5.429034494846960435e+00 7.876019489210621671e-01 4.697921412523181073e-01 7.876019489210621671e-01 -4.552084623957242115e+00 5.134800594723741840e-01 4.697921412523181073e-01 5.134800594723741840e-01 -6.275580650353106194e+00
1.701871694949693037e+00 -5.566455072823074668e-02 1.002058741999384717e+00 -5.566455072823074668e-02 -5.836325458932446253e+00 -4.707233987336236769e-01 1.002058741999384717e+00 -4.707233987336236769e-01 -5.737552279358022922e+00
-5.195094744055121616e+00 -4.706344844514206427e-01 1.717051317196838456e+00 -4.706344844514206427e-01 -4.043685340508307746e+00 -2.170641140605122033e+00 1.717051317196838456e+00 -2.170641140605122033e+00 -5.311803179015667453e+00
-4.192404329491300707e+00 -2.919104384254471163e-01 1.322161792622712939e+00 -2.919104384254471163e-01 3.087158479274944689e+00 -2.840876859699489998e+00 1.322161792622712939e+00 -2.840876859699489998e+00 5.566943034909470622e-01
3.191747757141295133e-02 -1.265371773841242609e-01 3.346613097094685574e-01 -1.265371773841242609e-01 3.481024908760505188e+00 -1.839103663473294681e+00 3.346613097094685574e-01 -1.839103663473294681e+00 2.075452954317211329e+00
1.907649308277480138e+00 -3.076445493942564502e-01 7.659582730358226454e-01 -3.076445493942564502e-01 -2.416491626952399940e+00 -6.631305635707587243e-01 7.659582730358226454e-01 -6.631305635707587243e-01 6.143739089825134281e-01
5.985688599530650895e-04 -1.024696243847832866e+00 1.520669515749104583e+00 -1.024696243847832866e+00 -3.939227243390706956e+00 4.625292747030196328e-01 1.520669515749104583e+00 4.625292747030196328e-01 -1.693703096511800732e+00
-3.779127194920191446e+00 -8.823656949852347608e-01 1.278631973093466545e+00 -8.823656949852347608e-01 -5.021480205190893997e+00 1.373793461874901256e+00 1.278631973093466545e+00 1.373793461874901256e+00 -8.263500154198553105e+00
-7.862948724455387506e+00 -1.260684362379253520e-01 4.520004732402757019e-01 -1.260684362379253520e-01 -3.292935683574583994e+00 2.507461746376404399e+00 4.520004732402757019e-01 2.507461746376404399e+00 -1.107440843213325365e+01
-7.076824009667262771e+00 -7.105199387515739526e-03 -1.079684150636621265e+00 -7.105199387515739526e-03 -2.285001030050191062e+00 3.518368519349469814e+00 -1.079684150636621265e+00 3.518368519349469814e+00 -5.912239086139936539e+00
-2.385315537154153898e+00 3.309168152547110886e-02 -2.267943505965517748e+00 3.309168152547110886e-02 1.847882549776431071e+00 3.445366610224446902e+00 -2.267943505965517748e+00 3.445366610224446902e+00 -1.696666032432017968e+00
3.033145450449352243e+00 -4.920877427645178326e-01 -1.730510821854681858e+00 -4.920877427645178326e-01 1.017594226036663585e+01 2.203630161103846685e+00 -1.730510821854681858e+00 2.203630161103846685e+00 -1.593264570461851992e+00
9.309268031359961171e+00 -5.379913392652183601e-01 -6.566095601377867075e-01 -5.379913392652183601e-01 1.126380103700894608e+01 9.839654521357543704e-01 -6.566095601377867075e-01 9.839654521357543704e-01 -6.621829314754064388e-02
1.069249774763764371e+00 2.738074840879883287e-01 3.060238720258234846e-01 2.738074840879883287e-01 2.632535514263544041e+00 -2.773533031428383477e-01 3.060238720258234846e-01 -2.773533031428383477e-01 -6.042538844051725810e+00
-2.234694460199346810e+00 1.181902724198413912e+00 6.831178509323684311e-01 1.181902724198413912e+00 3.502877512701585427e+00 -1.050328238345996645e+00 6.831178509323684311e-01 -1.050328238345996645e+00 -5.718205291510951582e+00
-2.554193008720166969e+00 1.586582236852278172e+00 1.090587433713892995e+00 1.586582236852278172e+00 3.750202384979660852e+00 -4.547247193150067424e-01 1.090587433713892995e+00 -4.547247193150067424e-01 -7.350500352353439570e-01
-1.014959872719900957e+00 2.022907038590244788e+00 1.856684967131170927e+00 2.022907038590244788e+00 3.094294494381232941e+00 -1.302466715107773121e+00 1.856684967131170927e+00 -1.302466715107773121e+00 -1.123856241075207985e+00
1.813838950408227957e+00 1.806426881212068736e+00 1.506801257689743379e+00 1.806426881212068736e+00 4.221035527044822544e+00 -2.749461025908449319e+00 1.506801257689743379e+00 -2.749461025908449319e+00 -4.188564316802771970e+00
1.545537025579937218e+00 9.934722728686186111e-01 6.094980942016092751e-01 9.934722728686186111e-01 6.475074462145559429e-02 -2.674286481766672718e+00 6.094980942016092751e-01 -2.674286481766672718e+00 -6.456351084126890072e+00
-1.445092100691879100e+00 9.227374310096485566e-01 6.993267011025277036e-01 9.227374310096485566e-01 -6.708354572610871758e-01 -2.232587541821173804e+00 6.993267011025277036e-01 -2.232587541821173804e+00 -6.627827990445922524e+00
-5.887016295202033511e+00 1.520876690069194570e+00 5.443895031120339345e-01 1.520876690069194570e+00 -4.491512486039706431e+00 -1.189493709285026180e+00 5.443895031120339345e-01 -1.189493709285026180e+00 -6.685247668655645903e+00
-3.913123831642951966e+00 1.991686674327630469e+00 -1.335958103399104979e-01 1.991686674327630469e+00 -7.645157461092767726e+00 4.513297291900704444e-02 -1.335958103399104979e-01 4.513297291900704444e-02 -8.699819256808069667e+00
-3.342376658329349937e+00 1.911743374338786161e+00 -9.883914197570202731e-01 1.911743374338786161e+00 -7.688264448094479953e+00 2.875587127233482088e-01 -9.883914197570202731e-01 2.875587127233482088e-01 -1.071647540191711734e+01
-2.496413430763989361e+00 2.134726070533959241e+00 -8.316958625610830769e-01 2.134726070533959241e+00 -7.118775840145318945e+00 3.110446538471400846e-01 -8.316958625610830769e-01 3.110446538471400846e-01 -8.448530580469737927e+00
-5.329423654627771789e+00 1.809896977856038536e+00 3.043173950309135956e-01 1.809896977856038536e+00 -5.379277274479057347e+00 4.496002701978369931e-01 3.043173950309135956e-01 4.496002701978369931e-01 -6.100530857711460975e+00
-5.469455412502393088e+00 3.698574759886917307e-01 1.725087791241809443e+00 3.698574759886917307e-01 9.222487795139965305e-01 1.013148689483923004e+00 1.725087791241809443e+00 1.013148689483923004e+00 -2.076744654349615082e+00
-1.775518884389159613e+00 3.736428086566703083e-02 2.824992566526198345e+00 3.736428086566703083e-02 2.056466668416449206e+00 1.103889917120610464e+00 2.824992566526198345e+00 1.103889917120610464e+00 -1.892125083538539032e+00
2.084578786921056359e+00 5.413820329187002400e-01 2.798911574332581420e+00 5.413820329187002400e-01 6.736543150160442250e-01 1.602685930643936718e-01 2.798911574332581420e+00 1.602685930643936718e-01 -2.135607907107802905e+00
7.343801320506727848e+00 4.239870313785520373e-01 1.749503199410204379e+00 4.239870313785520373e-01 2.603802040683207863e+00 -5.833144417528243197e-01 1.749503199410204379e+00 -5.833144417528243197e-01 4.602640129716053963e+00
7.886683647782569473e+00 3.911037741124472333e-01 1.427063570458404262e+00 3.911037741124472333e-01 3.483230846016467375e+00 -5.388814051997303789e-01 1.427063570458404262e+00 -5.388814051997303789e-01 8.637746524785915980e+00
1.674674568458119017e+00 3.990434249122168930e-01 1.546470702047633594e+00 3.990434249122168930e-01 2.123759202235828702e+00 -1.247943540060664880e+00 1.546470702047633594e+00 -1.247943540060664880e+00 4.788447054634101363e+00
-2.087506341629143947e+00 -2.150082180916063762e-02 1.685770584805380112e+00 -2.150082180916063762e-02 1.399351460132346903e+00 -2.399319627891674855e+00 1.685770584805380112e+00 -2.399319627891674855e+00 -1.953380266284795441e+00
-1.218609222441695339e+00 -1.458820369889383128e-01 1.719618043057628443e+00 -1.458820369889383128e-01 -3.448795231090452940e-01 -2.147833879647299771e+00 1.719618043057628443e+00 -2.147833879647299771e+00 -2.639812542112141447e+00
-2.505896078001099703e+00 8.720748972013719902e-02 1.935381446422388629e+00 8.720748972013719902e-02 1.092868384451145980e+00 -1.036473970907868747e+00 1.935381446422388629e+00 -1.036473970907868747e+00 -7.809991722642574130e-01
-4.766911892322427846e+00 -2.489998040770172727e-01 2.287837757938065320e+00 -2.489998040770172727e-01 -5.255169429018270444e-01 1.997898768830113081e-01 2.287837757938065320e+00 1.997898768830113081e-01 6.463502878562659149e-01
-6.538325102260536426e+00 -4.836976141507722815e-01 1.967179747706557347e+00 -4.836976141507722815e-01 -2.088838192532775473e+00 1.092914414012516433e+00 1.967179747706557347e+00 1.092914414012516433e+00 3.412988862102008247e-01
-6.810062085648312724e+00 2.509405770154292045e-02 9.423114273118919915e-01 2.509405770154292045e-02 -4.871676951560965918e+00 1.387952585124881288e+00 9.423114273118919915e-01 1.387952585124881288e+00 -5.210869327541164386e-01
-6.369044578828390257e+00 9.020438053244310694e-01 1.276115364213490089e-01 9.020438053244310694e-01 -9.689702106962576167e+00 1.051607909632255478e+00 1.276115364213490089e-01 1.051607909632255478e+00 -1.224268268427102901e+00
-5.215996531450809215e+00 1.119494056602905907e+00 -2.977546587847023640e-01 1.119494056602905907e+00 -8.276790403574430854e+00 6.742490375529021085e-01 -2.977546587847023640e-01 6.742490375529021085e-01 -1.891299872345211464e+00
-2.172336229263461149e+00 8.745460943744504112e-01 -5.953554061826387134e-01 8.745460943744504112e-01 -2.528316718451492306e+00 7.616981785023622942e-02 -5.953554061826387134e-01 7.616981785023622942e-02 -1.441730790071052759e+00
-5.481691491711709885e-01 9.891820620639296679e-01 -8.022620615945630362e-01 9.891820620639296679e-01 6.975680639683971007e-01 -8.492717079700182747e-01 -8.022620615945630362e-01 -8.492717079700182747e-01 1.901767870690922735e-01
-3.042131686192907747e+00 5.248274598568258842e-01 -7.515488821194012958e-01 5.248274598568258842e-01 -2.479576278103069242e+00 -1.743758068600654854e+00 -7.515488821194012958e-01 -1.743758068600654854e+00 1.265753350620810069e+00
-4.773670485097682992e+00 -1.346731922281432237e+00 -7.983052560255300689e-02 -1.346731922281432237e+00 -3.519354980094010266e+00 -1.263871322217342552e+00 -7.983052560255300689e-02 -1.263871322217342552e+00 1.705199636872802404e+00
-2.817652781774827364e+00 -2.449811313990111650e+00 4.030452052686886444e-01 -2.449811313990111650e+00 2.788154353923749884e+00 -5.665919233570704261e-01 4.030452052686886444e-01 -5.665919233570704261e-01 1.920696232234438083e+00
-1.301413985240936322e+00 -1.774167287596995157e+00 9.848352232738606660e-02 -1.774167287596995157e+00 8.392769017132287956e+00 -1.523523664307388503e-01 9.848352232738606660e-02 -1.523523664307388503e-01 1.804796366695041065e+00
-2.025745764804194327e+00 -4.808638109781441239e-01 -8.448725933625004236e-01 -4.808638109781441239e-01 5.388849608500430044e+00 4.621373545572292629e-01 -8.448725933625004236e-01 4.621373545572292629e-01 3.627611432868919294e+00
-2.208987069856182650e+00 8.321130004967874916e-01 -1.646736019584366550e+00 8.321130004967874916e-01 -2.436415285752247417e+00 8.249753757675168941e-01 -1.646736019584366550e+00 8.249753757675168941e-01 7.196210682400518976e+00
-2.235898758830086486e+00 1.084642210399495932e+00 -1.723708763969432400e+00 1.084642210399495932e+00 -6.249593333539450235e+00 3.500901629601519405e-01 -1.723708763969432400e+00 3.500901629601519405e-01 2.806987772298925599e+00
-8.949586044781421279e-02 -4.647562594958471599e-02 -1.500716734292648402e+00 -4.647562594958471599e-02 -3.935585148766345576e+00 -2.026297867088594218e-01 -1.500716734292648402e+00 -2.026297867088594218e-01 -3.974611389270918949e+00
-1.214643663675925023e+00 -1.240830990515364052e+00 -1.065364055500640950e+00 -1.240830990515364052e+00 -1.414853960935531951e+00 -1.314172719691689917e+00 -1.065364055500640950e+00 -1.314172719691689917e+00 -6.510388136051043162e+00
-5.764797081420332425e+00 -2.414222503137277265e+00 -1.145035747631596157e-01 -2.414222503137277265e+00 1.253183973616435187e+00 -2.265596985264671126e+00 -1.145035747631596157e-01 -2.265596985264671126e+00 -4.667753723349466810e+00
-5.688095468098481433e+00 -2.490914298756992995e+00 7.462988377347999913e-01 -2.490914298756992995e+00 2.666674773362723627e+00 -3.076655347467406099e+00 7.462988377347999913e-01 -3.076655347467406099e+00 -3.455216147225459888e+00
-3.127344754190932274e+00 -8.124147446669752748e-01 8.202835809547076584e-01 -8.124147446669752748e-01 7.441767869605739882e-01 -3.894833476151246199e+00 8.202835809547076584e-01 -3.894833476151246199e+00 -5.157141606629968678e+00
7.519970123956751795e-01 1.186687123726930970e+00 2.944319164557409052e-01 1.186687123726930970e+00 -4.152500762628682729e+00 -2.600060589712572146e+00 2.944319164557409052e-01 -2.600060589712572146e+00 -6.938373253264782825e+00
-8.178372900060523198e-01 1.485862693607947760e+00 -6.647291025575716716e-01 1.485862693607947760e+00 -8.335690364074496372e+00 -7.891246591702941737e-01 -6.647291025575716716e-01 -7.891246591702941737e-01 -6.378188981490608533e+00
6.116991838824273886e-01 3.749738557887452584e-01 -1.378984566016981272e+00 3.749738557887452584e-01 -7.313291534620760537e+00 1.473033965567548953e-01 -1.378984566016981272e+00 1.473033965567548953e-01 -9.029648565445157482e-01
6.411142938989451423e+00 -8.588854091883829645e-01 -1.741946433031744457e+00 -8.588854091883829645e-01 -2.742050078341460750e+00 2.951736269717999406e-01 -1.741946433031744457e+00 2.951736269717999406e-01 3.570460695132836371e+00
5.517456476250657715e+00 -1.769997866013757637e+00 -1.336033950940197057e+00 -1.769997866013757637e+00 -1.324498566323709436e+00 -6.619845317344578151e-01 -1.336033950940197057e+00 -6.619845317344578151e-01 3.360980112674906817e+00
1.435713918178416426e+00 -2.454632748415650489e+00 -1.183720393702234919e+00 -2.454632748415650489e+00 -4.186576963753307012e+00 -1.968892455648174389e+00 -1.183720393702234919e+00 -1.968892455648174389e+00 2.579170492917808755e+00
-3.670978032533197766e+00 -2.386557689206358912e+00 -1.791863365698562971e+00 -2.386557689206358912e+00 -5.925182084487093270e+00 -2.005294003156275373e+00 -1.791863365698562971e+00 -2.005294003156275373e+00 -5.122041240216829161e-01
-5.980998554784921595e+00 -1.343003128238097199e+00 -1.701401551799756051e+00 -1.343003128238097199e+00 -6.060912652110272525e+00 -1.487573853485945286e+00 -1.701401551799756051e+00 -1.487573853485945286e+00 -4.275688538992426402e+00
-5.028374084466393334e+00 2.688709252203872468e-01 -1.058390732023559488e+00 2.688709252203872468e-01 -1.156096406205547877e+00 -9.199960738279064909e-01 -1.058390732023559488e+00 -9.199960738279064909e-01 -4.910591602284964274e+00
-5.056422979601356005e+00 1.687822560906774516e+00 -6.709398835489607249e-01 1.687822560906774516e+00 -2.322365358282176828e-01 5.817842574118245067e-04 -6.709398835489607249e-01 5.817842574118245067e-04 -3.696265487214921208e+00
-4.034414395270946585e+00 1.629507229892697584e+00 8.231610142467690738e-02 1.629507229892697584e+00 -2.752975271334916041e+00 1.778167842304546609e+00 8.231610142467690738e-02 1.778167842304546609e+00 -3.955684264543472661e+00
1.996974307430483320e+00 -1.581137135561889451e-01 1.142964965424069668e+00 -1.581137135561889451e-01 -2.623670717066761693e+00 3.388071586307980443e+00 1.142964965424069668e+00 3.388071586307980443e+00 -4.178710508580611993e+00
4.866214721420988987e+00 -1.933202141854455158e+00 1.597788969930996616e+00 -1.933202141854455158e+00 -2.878793097135453838e+00 3.454003505240212490e+00 1.597788969930996616e+00 3.454003505240212490e+00 -2.737367611080994134e+00