
5000 atoms
15 atom types
   0.0000000000   38.9000000000 xlo xhi
   0.0000000000   38.9000000000 ylo yhi
   0.0000000000   39.1000000000 zlo zhi
   0.0000000000    0.0000000000    0.0000000000 xy xz yz

Atoms # atomic

     1      4    0.0000000000    0.0000000000    0.0000000000
     2      4    3.8900000000    0.0000000000    0.0000000000
     3      4    7.7800000000    0.0000000000    0.0000000000
     4      4   11.6700000000    0.0000000000    0.0000000000
     5      4   15.5600000000    0.0000000000    0.0000000000
     6      4   19.4500000000    0.0000000000    0.0000000000
     7      4   23.3400000000    0.0000000000    0.0000000000
     8      4   27.2300000000    0.0000000000    0.0000000000
     9      4   31.1200000000    0.0000000000    0.0000000000
    10      4   35.0100000000    0.0000000000    0.0000000000
    11      4    0.0000000000    3.8900000000    0.0000000000
    12      4    3.8900000000    3.8900000000    0.0000000000
    13      4    7.7800000000    3.8900000000    0.0000000000
    14      4   11.6700000000    3.8900000000    0.0000000000
    15      4   15.5600000000    3.8900000000    0.0000000000
    16      4   19.4500000000    3.8900000000    0.0000000000
    17      4   23.3400000000    3.8900000000    0.0000000000
    18      4   27.2300000000    3.8900000000    0.0000000000
    19      4   31.1200000000    3.8900000000    0.0000000000
    20      4   35.0100000000    3.8900000000    0.0000000000
    21      4    0.0000000000    7.7800000000    0.0000000000
    22      4    3.8900000000    7.7800000000    0.0000000000
    23      4    7.7800000000    7.7800000000    0.0000000000
    24      4   11.6700000000    7.7800000000    0.0000000000
    25      4   15.5600000000    7.7800000000    0.0000000000
    26      4   19.4500000000    7.7800000000    0.0000000000
    27      4   23.3400000000    7.7800000000    0.0000000000
    28      4   27.2300000000    7.7800000000    0.0000000000
    29      4   31.1200000000    7.7800000000    0.0000000000
    30      4   35.0100000000    7.7800000000    0.0000000000
    31      4    0.0000000000   11.6700000000    0.0000000000
    32      4    3.8900000000   11.6700000000    0.0000000000
    33      4    7.7800000000   11.6700000000    0.0000000000
    34      4   11.6700000000   11.6700000000    0.0000000000
    35      4   15.5600000000   11.6700000000    0.0000000000
    36      4   19.4500000000   11.6700000000    0.0000000000
    37      4   23.3400000000   11.6700000000    0.0000000000
    38      4   27.2300000000   11.6700000000    0.0000000000
    39      4   31.1200000000   11.6700000000    0.0000000000
    40      4   35.0100000000   11.6700000000    0.0000000000
    41      4    0.0000000000   15.5600000000    0.0000000000
    42      4    3.8900000000   15.5600000000    0.0000000000
    43      4    7.7800000000   15.5600000000    0.0000000000
    44      4   11.6700000000   15.5600000000    0.0000000000
    45      4   15.5600000000   15.5600000000    0.0000000000
    46      4   19.4500000000   15.5600000000    0.0000000000
    47      4   23.3400000000   15.5600000000    0.0000000000
    48      4   27.2300000000   15.5600000000    0.0000000000
    49      4   31.1200000000   15.5600000000    0.0000000000
    50      4   35.0100000000   15.5600000000    0.0000000000
    51      4    0.0000000000   19.4500000000    0.0000000000
    52      4    3.8900000000   19.4500000000    0.0000000000
    53      4    7.7800000000   19.4500000000    0.0000000000
    54      4   11.6700000000   19.4500000000    0.0000000000
    55      4   15.5600000000   19.4500000000    0.0000000000
    56      4   19.4500000000   19.4500000000    0.0000000000
    57      4   23.3400000000   19.4500000000    0.0000000000
    58      4   27.2300000000   19.4500000000    0.0000000000
    59      4   31.1200000000   19.4500000000    0.0000000000
    60      4   35.0100000000   19.4500000000    0.0000000000
    61      4    0.0000000000   23.3400000000    0.0000000000
    62      4    3.8900000000   23.3400000000    0.0000000000
    63      4    7.7800000000   23.3400000000    0.0000000000
    64      4   11.6700000000   23.3400000000    0.0000000000
    65      4   15.5600000000   23.3400000000    0.0000000000
    66      4   19.4500000000   23.3400000000    0.0000000000
    67      4   23.3400000000   23.3400000000    0.0000000000
    68      4   27.2300000000   23.3400000000    0.0000000000
    69      4   31.1200000000   23.3400000000    0.0000000000
    70      4   35.0100000000   23.3400000000    0.0000000000
    71      4    0.0000000000   27.2300000000    0.0000000000
    72      4    3.8900000000   27.2300000000    0.0000000000
    73      4    7.7800000000   27.2300000000    0.0000000000
    74      4   11.6700000000   27.2300000000    0.0000000000
    75      4   15.5600000000   27.2300000000    0.0000000000
    76      4   19.4500000000   27.2300000000    0.0000000000
    77      4   23.3400000000   27.2300000000    0.0000000000
    78      4   27.2300000000   27.2300000000    0.0000000000
    79      4   31.1200000000   27.2300000000    0.0000000000
    80      4   35.0100000000   27.2300000000    0.0000000000
    81      4    0.0000000000   31.1200000000    0.0000000000
    82      4    3.8900000000   31.1200000000    0.0000000000
    83      4    7.7800000000   31.1200000000    0.0000000000
    84      4   11.6700000000   31.1200000000    0.0000000000
    85      4   15.5600000000   31.1200000000    0.0000000000
    86      4   19.4500000000   31.1200000000    0.0000000000
    87      4   23.3400000000   31.1200000000    0.0000000000
    88      4   27.2300000000   31.1200000000    0.0000000000
    89      4   31.1200000000   31.1200000000    0.0000000000
    90      4   35.0100000000   31.1200000000    0.0000000000
    91      4    0.0000000000   35.0100000000    0.0000000000
    92      4    3.8900000000   35.0100000000    0.0000000000
    93      4    7.7800000000   35.0100000000    0.0000000000
    94      4   11.6700000000   35.0100000000    0.0000000000
    95      4   15.5600000000   35.0100000000    0.0000000000
    96      4   19.4500000000   35.0100000000    0.0000000000
    97      4   23.3400000000   35.0100000000    0.0000000000
    98      4   27.2300000000   35.0100000000    0.0000000000
    99      4   31.1200000000   35.0100000000    0.0000000000
   100      4   35.0100000000   35.0100000000    0.0000000000
   101      4    0.0000000000    0.0000000000    3.8900000000
   102      4    3.8900000000    0.0000000000    3.8900000000
   103      4    7.7800000000    0.0000000000    3.8900000000
   104      4   11.6700000000    0.0000000000    3.8900000000
   105      4   15.5600000000    0.0000000000    3.8900000000
   106      4   19.4500000000    0.0000000000    3.8900000000
   107      4   23.3400000000    0.0000000000    3.8900000000
   108      4   27.2300000000    0.0000000000    3.8900000000
   109      4   31.1200000000    0.0000000000    3.8900000000
   110      4   35.0100000000    0.0000000000    3.8900000000
   111      4    0.0000000000    3.8900000000    3.8900000000
   112      4    3.8900000000    3.8900000000    3.8900000000
   113      4    7.7800000000    3.8900000000    3.8900000000
   114      4   11.6700000000    3.8900000000    3.8900000000
   115      4   15.5600000000    3.8900000000    3.8900000000
   116      4   19.4500000000    3.8900000000    3.8900000000
   117      4   23.3400000000    3.8900000000    3.8900000000
   118      4   27.2300000000    3.8900000000    3.8900000000
   119      4   31.1200000000    3.8900000000    3.8900000000
   120      4   35.0100000000    3.8900000000    3.8900000000
   121      4    0.0000000000    7.7800000000    3.8900000000
   122      4    3.8900000000    7.7800000000    3.8900000000
   123      4    7.7800000000    7.7800000000    3.8900000000
   124      4   11.6700000000    7.7800000000    3.8900000000
   125      4   15.5600000000    7.7800000000    3.8900000000
   126      4   19.4500000000    7.7800000000    3.8900000000
   127      4   23.3400000000    7.7800000000    3.8900000000
   128      4   27.2300000000    7.7800000000    3.8900000000
   129      4   31.1200000000    7.7800000000    3.8900000000
   130      4   35.0100000000    7.7800000000    3.8900000000
   131      4    0.0000000000   11.6700000000    3.8900000000
   132      4    3.8900000000   11.6700000000    3.8900000000
   133      4    7.7800000000   11.6700000000    3.8900000000
   134      4   11.6700000000   11.6700000000    3.8900000000
   135      4   15.5600000000   11.6700000000    3.8900000000
   136      4   19.4500000000   11.6700000000    3.8900000000
   137      4   23.3400000000   11.6700000000    3.8900000000
   138      4   27.2300000000   11.6700000000    3.8900000000
   139      4   31.1200000000   11.6700000000    3.8900000000
   140      4   35.0100000000   11.6700000000    3.8900000000
   141      4    0.0000000000   15.5600000000    3.8900000000
   142      4    3.8900000000   15.5600000000    3.8900000000
   143      4    7.7800000000   15.5600000000    3.8900000000
   144      4   11.6700000000   15.5600000000    3.8900000000
   145      4   15.5600000000   15.5600000000    3.8900000000
   146      4   19.4500000000   15.5600000000    3.8900000000
   147      4   23.3400000000   15.5600000000    3.8900000000
   148      4   27.2300000000   15.5600000000    3.8900000000
   149      4   31.1200000000   15.5600000000    3.8900000000
   150      4   35.0100000000   15.5600000000    3.8900000000
   151      4    0.0000000000   19.4500000000    3.8900000000
   152      4    3.8900000000   19.4500000000    3.8900000000
   153      4    7.7800000000   19.4500000000    3.8900000000
   154      4   11.6700000000   19.4500000000    3.8900000000
   155      4   15.5600000000   19.4500000000    3.8900000000
   156      4   19.4500000000   19.4500000000    3.8900000000
   157      4   23.3400000000   19.4500000000    3.8900000000
   158      4   27.2300000000   19.4500000000    3.8900000000
   159      4   31.1200000000   19.4500000000    3.8900000000
   160      4   35.0100000000   19.4500000000    3.8900000000
   161      4    0.0000000000   23.3400000000    3.8900000000
   162      4    3.8900000000   23.3400000000    3.8900000000
   163      4    7.7800000000   23.3400000000    3.8900000000
   164      4   11.6700000000   23.3400000000    3.8900000000
   165      4   15.5600000000   23.3400000000    3.8900000000
   166      4   19.4500000000   23.3400000000    3.8900000000
   167      4   23.3400000000   23.3400000000    3.8900000000
   168      4   27.2300000000   23.3400000000    3.8900000000
   169      4   31.1200000000   23.3400000000    3.8900000000
   170      4   35.0100000000   23.3400000000    3.8900000000
   171      4    0.0000000000   27.2300000000    3.8900000000
   172      4    3.8900000000   27.2300000000    3.8900000000
   173      4    7.7800000000   27.2300000000    3.8900000000
   174      4   11.6700000000   27.2300000000    3.8900000000
   175      4   15.5600000000   27.2300000000    3.8900000000
   176      4   19.4500000000   27.2300000000    3.8900000000
   177      4   23.3400000000   27.2300000000    3.8900000000
   178      4   27.2300000000   27.2300000000    3.8900000000
   179      4   31.1200000000   27.2300000000    3.8900000000
   180      4   35.0100000000   27.2300000000    3.8900000000
   181      4    0.0000000000   31.1200000000    3.8900000000
   182      4    3.8900000000   31.1200000000    3.8900000000
   183      4    7.7800000000   31.1200000000    3.8900000000
   184      4   11.6700000000   31.1200000000    3.8900000000
   185      4   15.5600000000   31.1200000000    3.8900000000
   186      4   19.4500000000   31.1200000000    3.8900000000
   187      4   23.3400000000   31.1200000000    3.8900000000
   188      4   27.2300000000   31.1200000000    3.8900000000
   189      4   31.1200000000   31.1200000000    3.8900000000
   190      4   35.0100000000   31.1200000000    3.8900000000
   191      4    0.0000000000   35.0100000000    3.8900000000
   192      4    3.8900000000   35.0100000000    3.8900000000
   193      4    7.7800000000   35.0100000000    3.8900000000
   194      4   11.6700000000   35.0100000000    3.8900000000
   195      4   15.5600000000   35.0100000000    3.8900000000
   196      4   19.4500000000   35.0100000000    3.8900000000
   197      4   23.3400000000   35.0100000000    3.8900000000
   198      4   27.2300000000   35.0100000000    3.8900000000
   199      4   31.1200000000   35.0100000000    3.8900000000
   200      4   35.0100000000   35.0100000000    3.8900000000
   201      4    0.0000000000    0.0000000000    7.7800000000
   202      4    3.8900000000    0.0000000000    7.7800000000
   203      4    7.7800000000    0.0000000000    7.7800000000
   204      4   11.6700000000    0.0000000000    7.7800000000
   205      4   15.5600000000    0.0000000000    7.7800000000
   206      4   19.4500000000    0.0000000000    7.7800000000
   207      4   23.3400000000    0.0000000000    7.7800000000
   208      4   27.2300000000    0.0000000000    7.7800000000
   209      4   31.1200000000    0.0000000000    7.7800000000
   210      4   35.0100000000    0.0000000000    7.7800000000
   211      4    0.0000000000    3.8900000000    7.7800000000
   212      4    3.8900000000    3.8900000000    7.7800000000
   213      4    7.7800000000    3.8900000000    7.7800000000
   214      4   11.6700000000    3.8900000000    7.7800000000
   215      4   15.5600000000    3.8900000000    7.7800000000
   216      4   19.4500000000    3.8900000000    7.7800000000
   217      4   23.3400000000    3.8900000000    7.7800000000
   218      4   27.2300000000    3.8900000000    7.7800000000
   219      4   31.1200000000    3.8900000000    7.7800000000
   220      4   35.0100000000    3.8900000000    7.7800000000
   221      4    0.0000000000    7.7800000000    7.7800000000
   222      4    3.8900000000    7.7800000000    7.7800000000
   223      4    7.7800000000    7.7800000000    7.7800000000
   224      4   11.6700000000    7.7800000000    7.7800000000
   225      4   15.5600000000    7.7800000000    7.7800000000
   226      4   19.4500000000    7.7800000000    7.7800000000
   227      4   23.3400000000    7.7800000000    7.7800000000
   228      4   27.2300000000    7.7800000000    7.7800000000
   229      4   31.1200000000    7.7800000000    7.7800000000
   230      4   35.0100000000    7.7800000000    7.7800000000
   231      4    0.0000000000   11.6700000000    7.7800000000
   232      4    3.8900000000   11.6700000000    7.7800000000
   233      4    7.7800000000   11.6700000000    7.7800000000
   234      4   11.6700000000   11.6700000000    7.7800000000
   235      4   15.5600000000   11.6700000000    7.7800000000
   236      4   19.4500000000   11.6700000000    7.7800000000
   237      4   23.3400000000   11.6700000000    7.7800000000
   238      4   27.2300000000   11.6700000000    7.7800000000
   239      4   31.1200000000   11.6700000000    7.7800000000
   240      4   35.0100000000   11.6700000000    7.7800000000
   241      4    0.0000000000   15.5600000000    7.7800000000
   242      4    3.8900000000   15.5600000000    7.7800000000
   243      4    7.7800000000   15.5600000000    7.7800000000
   244      4   11.6700000000   15.5600000000    7.7800000000
   245      4   15.5600000000   15.5600000000    7.7800000000
   246      4   19.4500000000   15.5600000000    7.7800000000
   247      4   23.3400000000   15.5600000000    7.7800000000
   248      4   27.2300000000   15.5600000000    7.7800000000
   249      4   31.1200000000   15.5600000000    7.7800000000
   250      4   35.0100000000   15.5600000000    7.7800000000
   251      4    0.0000000000   19.4500000000    7.7800000000
   252      4    3.8900000000   19.4500000000    7.7800000000
   253      4    7.7800000000   19.4500000000    7.7800000000
   254      4   11.6700000000   19.4500000000    7.7800000000
   255      4   15.5600000000   19.4500000000    7.7800000000
   256      4   19.4500000000   19.4500000000    7.7800000000
   257      4   23.3400000000   19.4500000000    7.7800000000
   258      4   27.2300000000   19.4500000000    7.7800000000
   259      4   31.1200000000   19.4500000000    7.7800000000
   260      4   35.0100000000   19.4500000000    7.7800000000
   261      4    0.0000000000   23.3400000000    7.7800000000
   262      4    3.8900000000   23.3400000000    7.7800000000
   263      4    7.7800000000   23.3400000000    7.7800000000
   264      4   11.6700000000   23.3400000000    7.7800000000
   265      4   15.5600000000   23.3400000000    7.7800000000
   266      4   19.4500000000   23.3400000000    7.7800000000
   267      4   23.3400000000   23.3400000000    7.7800000000
   268      4   27.2300000000   23.3400000000    7.7800000000
   269      4   31.1200000000   23.3400000000    7.7800000000
   270      4   35.0100000000   23.3400000000    7.7800000000
   271      4    0.0000000000   27.2300000000    7.7800000000
   272      4    3.8900000000   27.2300000000    7.7800000000
   273      4    7.7800000000   27.2300000000    7.7800000000
   274      4   11.6700000000   27.2300000000    7.7800000000
   275      4   15.5600000000   27.2300000000    7.7800000000
   276      4   19.4500000000   27.2300000000    7.7800000000
   277      4   23.3400000000   27.2300000000    7.7800000000
   278      4   27.2300000000   27.2300000000    7.7800000000
   279      4   31.1200000000   27.2300000000    7.7800000000
   280      4   35.0100000000   27.2300000000    7.7800000000
   281      4    0.0000000000   31.1200000000    7.7800000000
   282      4    3.8900000000   31.1200000000    7.7800000000
   283      4    7.7800000000   31.1200000000    7.7800000000
   284      4   11.6700000000   31.1200000000    7.7800000000
   285      4   15.5600000000   31.1200000000    7.7800000000
   286      4   19.4500000000   31.1200000000    7.7800000000
   287      4   23.3400000000   31.1200000000    7.7800000000
   288      4   27.2300000000   31.1200000000    7.7800000000
   289      4   31.1200000000   31.1200000000    7.7800000000
   290      4   35.0100000000   31.1200000000    7.7800000000
   291      4    0.0000000000   35.0100000000    7.7800000000
   292      4    3.8900000000   35.0100000000    7.7800000000
   293      4    7.7800000000   35.0100000000    7.7800000000
   294      4   11.6700000000   35.0100000000    7.7800000000
   295      4   15.5600000000   35.0100000000    7.7800000000
   296      4   19.4500000000   35.0100000000    7.7800000000
   297      4   23.3400000000   35.0100000000    7.7800000000
   298      4   27.2300000000   35.0100000000    7.7800000000
   299      4   31.1200000000   35.0100000000    7.7800000000
   300      4   35.0100000000   35.0100000000    7.7800000000
   301      4    0.0000000000    0.0000000000   11.6700000000
   302      4    3.8900000000    0.0000000000   11.6700000000
   303      4    7.7800000000    0.0000000000   11.6700000000
   304      4   11.6700000000    0.0000000000   11.6700000000
   305      4   15.5600000000    0.0000000000   11.6700000000
   306      4   19.4500000000    0.0000000000   11.6700000000
   307      4   23.3400000000    0.0000000000   11.6700000000
   308      4   27.2300000000    0.0000000000   11.6700000000
   309      4   31.1200000000    0.0000000000   11.6700000000
   310      4   35.0100000000    0.0000000000   11.6700000000
   311      4    0.0000000000    3.8900000000   11.6700000000
   312      4    3.8900000000    3.8900000000   11.6700000000
   313      4    7.7800000000    3.8900000000   11.6700000000
   314      4   11.6700000000    3.8900000000   11.6700000000
   315      4   15.5600000000    3.8900000000   11.6700000000
   316      4   19.4500000000    3.8900000000   11.6700000000
   317      4   23.3400000000    3.8900000000   11.6700000000
   318      4   27.2300000000    3.8900000000   11.6700000000
   319      4   31.1200000000    3.8900000000   11.6700000000
   320      4   35.0100000000    3.8900000000   11.6700000000
   321      4    0.0000000000    7.7800000000   11.6700000000
   322      4    3.8900000000    7.7800000000   11.6700000000
   323      4    7.7800000000    7.7800000000   11.6700000000
   324      4   11.6700000000    7.7800000000   11.6700000000
   325      4   15.5600000000    7.7800000000   11.6700000000
   326      4   19.4500000000    7.7800000000   11.6700000000
   327      4   23.3400000000    7.7800000000   11.6700000000
   328      4   27.2300000000    7.7800000000   11.6700000000
   329      4   31.1200000000    7.7800000000   11.6700000000
   330      4   35.0100000000    7.7800000000   11.6700000000
   331      4    0.0000000000   11.6700000000   11.6700000000
   332      4    3.8900000000   11.6700000000   11.6700000000
   333      4    7.7800000000   11.6700000000   11.6700000000
   334      4   11.6700000000   11.6700000000   11.6700000000
   335      4   15.5600000000   11.6700000000   11.6700000000
   336      4   19.4500000000   11.6700000000   11.6700000000
   337      4   23.3400000000   11.6700000000   11.6700000000
   338      4   27.2300000000   11.6700000000   11.6700000000
   339      4   31.1200000000   11.6700000000   11.6700000000
   340      4   35.0100000000   11.6700000000   11.6700000000
   341      4    0.0000000000   15.5600000000   11.6700000000
   342      4    3.8900000000   15.5600000000   11.6700000000
   343      4    7.7800000000   15.5600000000   11.6700000000
   344      4   11.6700000000   15.5600000000   11.6700000000
   345      4   15.5600000000   15.5600000000   11.6700000000
   346      4   19.4500000000   15.5600000000   11.6700000000
   347      4   23.3400000000   15.5600000000   11.6700000000
   348      4   27.2300000000   15.5600000000   11.6700000000
   349      4   31.1200000000   15.5600000000   11.6700000000
   350      4   35.0100000000   15.5600000000   11.6700000000
   351      4    0.0000000000   19.4500000000   11.6700000000
   352      4    3.8900000000   19.4500000000   11.6700000000
   353      4    7.7800000000   19.4500000000   11.6700000000
   354      4   11.6700000000   19.4500000000   11.6700000000
   355      4   15.5600000000   19.4500000000   11.6700000000
   356      4   19.4500000000   19.4500000000   11.6700000000
   357      4   23.3400000000   19.4500000000   11.6700000000
   358      4   27.2300000000   19.4500000000   11.6700000000
   359      4   31.1200000000   19.4500000000   11.6700000000
   360      4   35.0100000000   19.4500000000   11.6700000000
   361      4    0.0000000000   23.3400000000   11.6700000000
   362      4    3.8900000000   23.3400000000   11.6700000000
   363      4    7.7800000000   23.3400000000   11.6700000000
   364      4   11.6700000000   23.3400000000   11.6700000000
   365      4   15.5600000000   23.3400000000   11.6700000000
   366      4   19.4500000000   23.3400000000   11.6700000000
   367      4   23.3400000000   23.3400000000   11.6700000000
   368      4   27.2300000000   23.3400000000   11.6700000000
   369      4   31.1200000000   23.3400000000   11.6700000000
   370      4   35.0100000000   23.3400000000   11.6700000000
   371      4    0.0000000000   27.2300000000   11.6700000000
   372      4    3.8900000000   27.2300000000   11.6700000000
   373      4    7.7800000000   27.2300000000   11.6700000000
   374      4   11.6700000000   27.2300000000   11.6700000000
   375      4   15.5600000000   27.2300000000   11.6700000000
   376      4   19.4500000000   27.2300000000   11.6700000000
   377      4   23.3400000000   27.2300000000   11.6700000000
   378      4   27.2300000000   27.2300000000   11.6700000000
   379      4   31.1200000000   27.2300000000   11.6700000000
   380      4   35.0100000000   27.2300000000   11.6700000000
   381      4    0.0000000000   31.1200000000   11.6700000000
   382      4    3.8900000000   31.1200000000   11.6700000000
   383      4    7.7800000000   31.1200000000   11.6700000000
   384      4   11.6700000000   31.1200000000   11.6700000000
   385      4   15.5600000000   31.1200000000   11.6700000000
   386      4   19.4500000000   31.1200000000   11.6700000000
   387      4   23.3400000000   31.1200000000   11.6700000000
   388      4   27.2300000000   31.1200000000   11.6700000000
   389      4   31.1200000000   31.1200000000   11.6700000000
   390      4   35.0100000000   31.1200000000   11.6700000000
   391      4    0.0000000000   35.0100000000   11.6700000000
   392      4    3.8900000000   35.0100000000   11.6700000000
   393      4    7.7800000000   35.0100000000   11.6700000000
   394      4   11.6700000000   35.0100000000   11.6700000000
   395      4   15.5600000000   35.0100000000   11.6700000000
   396      4   19.4500000000   35.0100000000   11.6700000000
   397      4   23.3400000000   35.0100000000   11.6700000000
   398      4   27.2300000000   35.0100000000   11.6700000000
   399      4   31.1200000000   35.0100000000   11.6700000000
   400      4   35.0100000000   35.0100000000   11.6700000000
   401      4    0.0000000000    0.0000000000   15.5600000000
   402      4    3.8900000000    0.0000000000   15.5600000000
   403      4    7.7800000000    0.0000000000   15.5600000000
   404      4   11.6700000000    0.0000000000   15.5600000000
   405      4   15.5600000000    0.0000000000   15.5600000000
   406      4   19.4500000000    0.0000000000   15.5600000000
   407      4   23.3400000000    0.0000000000   15.5600000000
   408      4   27.2300000000    0.0000000000   15.5600000000
   409      4   31.1200000000    0.0000000000   15.5600000000
   410      4   35.0100000000    0.0000000000   15.5600000000
   411      4    0.0000000000    3.8900000000   15.5600000000
   412      4    3.8900000000    3.8900000000   15.5600000000
   413      4    7.7800000000    3.8900000000   15.5600000000
   414      4   11.6700000000    3.8900000000   15.5600000000
   415      4   15.5600000000    3.8900000000   15.5600000000
   416      4   19.4500000000    3.8900000000   15.5600000000
   417      4   23.3400000000    3.8900000000   15.5600000000
   418      4   27.2300000000    3.8900000000   15.5600000000
   419      4   31.1200000000    3.8900000000   15.5600000000
   420      4   35.0100000000    3.8900000000   15.5600000000
   421      4    0.0000000000    7.7800000000   15.5600000000
   422      4    3.8900000000    7.7800000000   15.5600000000
   423      4    7.7800000000    7.7800000000   15.5600000000
   424      4   11.6700000000    7.7800000000   15.5600000000
   425      4   15.5600000000    7.7800000000   15.5600000000
   426      4   19.4500000000    7.7800000000   15.5600000000
   427      4   23.3400000000    7.7800000000   15.5600000000
   428      4   27.2300000000    7.7800000000   15.5600000000
   429      4   31.1200000000    7.7800000000   15.5600000000
   430      4   35.0100000000    7.7800000000   15.5600000000
   431      4    0.0000000000   11.6700000000   15.5600000000
   432      4    3.8900000000   11.6700000000   15.5600000000
   433      4    7.7800000000   11.6700000000   15.5600000000
   434      4   11.6700000000   11.6700000000   15.5600000000
   435      4   15.5600000000   11.6700000000   15.5600000000
   436      4   19.4500000000   11.6700000000   15.5600000000
   437      4   23.3400000000   11.6700000000   15.5600000000
   438      4   27.2300000000   11.6700000000   15.5600000000
   439      4   31.1200000000   11.6700000000   15.5600000000
   440      4   35.0100000000   11.6700000000   15.5600000000
   441      4    0.0000000000   15.5600000000   15.5600000000
   442      4    3.8900000000   15.5600000000   15.5600000000
   443      4    7.7800000000   15.5600000000   15.5600000000
   444      4   11.6700000000   15.5600000000   15.5600000000
   445      4   15.5600000000   15.5600000000   15.5600000000
   446      4   19.4500000000   15.5600000000   15.5600000000
   447      4   23.3400000000   15.5600000000   15.5600000000
   448      4   27.2300000000   15.5600000000   15.5600000000
   449      4   31.1200000000   15.5600000000   15.5600000000
   450      4   35.0100000000   15.5600000000   15.5600000000
   451      4    0.0000000000   19.4500000000   15.5600000000
   452      4    3.8900000000   19.4500000000   15.5600000000
   453      4    7.7800000000   19.4500000000   15.5600000000
   454      4   11.6700000000   19.4500000000   15.5600000000
   455      4   15.5600000000   19.4500000000   15.5600000000
   456      4   19.4500000000   19.4500000000   15.5600000000
   457      4   23.3400000000   19.4500000000   15.5600000000
   458      4   27.2300000000   19.4500000000   15.5600000000
   459      4   31.1200000000   19.4500000000   15.5600000000
   460      4   35.0100000000   19.4500000000   15.5600000000
   461      4    0.0000000000   23.3400000000   15.5600000000
   462      4    3.8900000000   23.3400000000   15.5600000000
   463      4    7.7800000000   23.3400000000   15.5600000000
   464      4   11.6700000000   23.3400000000   15.5600000000
   465      4   15.5600000000   23.3400000000   15.5600000000
   466      4   19.4500000000   23.3400000000   15.5600000000
   467      4   23.3400000000   23.3400000000   15.5600000000
   468      4   27.2300000000   23.3400000000   15.5600000000
   469      4   31.1200000000   23.3400000000   15.5600000000
   470      4   35.0100000000   23.3400000000   15.5600000000
   471      4    0.0000000000   27.2300000000   15.5600000000
   472      4    3.8900000000   27.2300000000   15.5600000000
   473      4    7.7800000000   27.2300000000   15.5600000000
   474      4   11.6700000000   27.2300000000   15.5600000000
   475      4   15.5600000000   27.2300000000   15.5600000000
   476      4   19.4500000000   27.2300000000   15.5600000000
   477      4   23.3400000000   27.2300000000   15.5600000000
   478      4   27.2300000000   27.2300000000   15.5600000000
   479      4   31.1200000000   27.2300000000   15.5600000000
   480      4   35.0100000000   27.2300000000   15.5600000000