7.955244419855517890e+00 -0.000000000000000000e+00 -0.000000000000000000e+00 -8.462951284703915111e-02 8.073713145404857627e+00 -0.000000000000000000e+00 4.230975645230091592e-02 -6.412963085053316470e-02 8.085043023520668726e+00
7.954280645071295730e+00 -0.000000000000000000e+00 -0.000000000000000000e+00 -8.462951284703915111e-02 8.072735018180253519e+00 -0.000000000000000000e+00 4.230975645230091592e-02 -6.412963085053316470e-02 8.084063523685964370e+00
7.953744247276962831e+00 -0.000000000000000000e+00 -0.000000000000000000e+00 -8.462951284703915111e-02 8.072190632401902377e+00 -0.000000000000000000e+00 4.230975645230091592e-02 -6.412963085053316470e-02 8.083518373969010185e+00
7.954661881910781496e+00 -0.000000000000000000e+00 -0.000000000000000000e+00 -8.462951284703915111e-02 8.073121932361059905e+00 -0.000000000000000000e+00 4.230975645230091592e-02 -6.412963085053316470e-02 8.084450980825645061e+00
7.955985836232701836e+00 -0.000000000000000000e+00 -0.000000000000000000e+00 -8.462951284703915111e-02 8.074465602882487048e+00 -0.000000000000000000e+00 4.230975645230091592e-02 -6.412963085053316470e-02 8.085796536926219247e+00
7.956925974736980933e+00 -0.000000000000000000e+00 -0.000000000000000000e+00 -8.462951284703915111e-02 8.075419741838175014e+00 -0.000000000000000000e+00 4.230975645230091592e-02 -6.412963085053316470e-02 8.086752014829199808e+00
7.958099612614168095e+00 -0.000000000000000000e+00 -0.000000000000000000e+00 -8.462951284703915111e-02 8.076610857415754907e+00 -0.000000000000000000e+00 4.230975645230091592e-02 -6.412963085053316470e-02 8.087944801904157544e+00
7.959897748057559674e+00 -0.000000000000000000e+00 -0.000000000000000000e+00 -8.462951284703915111e-02 8.078435770517005565e+00 -0.000000000000000000e+00 4.230975645230091592e-02 -6.412963085053316470e-02 8.089772275914667077e+00
7.961797481645120911e+00 -0.000000000000000000e+00 -0.000000000000000000e+00 -8.462951284703915111e-02 8.080363794751717066e+00 -0.000000000000000000e+00 4.230975645230091592e-02 -6.412963085053316470e-02 8.091703005754805389e+00
7.963388035024417277e+00 -0.000000000000000000e+00 -0.000000000000000000e+00 -8.462951284703915111e-02 8.081978034497668162e+00 -0.000000000000000000e+00 4.230975645230091592e-02 -6.412963085053316470e-02 8.093319510770715652e+00
7.964576084382646748e+00 -0.000000000000000000e+00 -0.000000000000000000e+00 -8.462951284703915111e-02 8.083183776172056412e+00 -0.000000000000000000e+00 4.230975645230091592e-02 -6.412963085053316470e-02 8.094526944467364871e+00
7.965007631025533996e+00 -0.000000000000000000e+00 -0.000000000000000000e+00 -8.462951284703915111e-02 8.083621749364951370e+00 -0.000000000000000000e+00 4.230975645230091592e-02 -6.412963085053316470e-02 8.094965532269720043e+00
7.965102700613284625e+00 -0.000000000000000000e+00 -0.000000000000000000e+00 -8.462951284703915111e-02 8.083718234719551532e+00 -0.000000000000000000e+00 4.230975645230091592e-02 -6.412963085053316470e-02 8.095062153022540841e+00
7.965851775875382401e+00 -0.000000000000000000e+00 -0.000000000000000000e+00 -8.462951284703915111e-02 8.084478465137436842e+00 -0.000000000000000000e+00 4.230975645230091592e-02 -6.412963085053316470e-02 8.095823450276284916e+00
7.966600887281271248e+00 -0.000000000000000000e+00 -0.000000000000000000e+00 -8.462951284703915111e-02 8.085238732237110426e+00 -0.000000000000000000e+00 4.230975645230091592e-02 -6.412963085053316470e-02 8.096584784261818157e+00
7.965547766952349562e+00 -0.000000000000000000e+00 -0.000000000000000000e+00 -8.462951284703915111e-02 8.084169928943463646e+00 -0.000000000000000000e+00 4.230975645230091592e-02 -6.412963085053316470e-02 8.095514481110805960e+00
7.962590492476311788e+00 -0.000000000000000000e+00 -0.000000000000000000e+00 -8.462951284703915111e-02 8.081168615023930357e+00 -0.000000000000000000e+00 4.230975645230091592e-02 -6.412963085053316470e-02 8.092508955434515983e+00
7.959938884535765702e+00 -0.000000000000000000e+00 -0.000000000000000000e+00 -8.462951284703915111e-02 8.078477519595686829e+00 -0.000000000000000000e+00 4.230975645230091592e-02 -6.412963085053316470e-02 8.089814083580009196e+00
7.959467594486652864e+00 -0.000000000000000000e+00 -0.000000000000000000e+00 -8.462951284703915111e-02 8.077999211140973301e+00 -0.000000000000000000e+00 4.230975645230091592e-02 -6.412963085053316470e-02 8.089335103913160907e+00
7.960921456722783951e+00 -0.000000000000000000e+00 -0.000000000000000000e+00 -8.462951284703915111e-02 8.079474724152476028e+00 -0.000000000000000000e+00 4.230975645230091592e-02 -6.412963085053316470e-02 8.090812687517743740e+00
7.964253983662755942e+00 -0.000000000000000000e+00 -0.000000000000000000e+00 -8.462951284703915111e-02 8.082856878758775565e+00 -0.000000000000000000e+00 4.230975645230091592e-02 -6.412963085053316470e-02 8.094199588317723126e+00
7.970253113829955716e+00 -0.000000000000000000e+00 -0.000000000000000000e+00 -8.462951284703915111e-02 8.088945347388717622e+00 -0.000000000000000000e+00 4.230975645230091592e-02 -6.412963085053316470e-02 8.100296600922483492e+00
7.978230154817705255e+00 -0.000000000000000000e+00 -0.000000000000000000e+00 -8.462951284703915111e-02 8.097041181693656497e+00 -0.000000000000000000e+00 4.230975645230091592e-02 -6.412963085053316470e-02 8.108403796149026732e+00
7.988969612384154040e+00 -0.000000000000000000e+00 -0.000000000000000000e+00 -8.462951284703915111e-02 8.107940570216495502e+00 -0.000000000000000000e+00 4.230975645230091592e-02 -6.412963085053316470e-02 8.119318479832820401e+00
8.002548866057882293e+00 -0.000000000000000000e+00 -0.000000000000000000e+00 -8.462951284703915111e-02 8.121722044815177455e+00 -0.000000000000000000e+00 4.230975645230091592e-02 -6.412963085053316470e-02 8.133119294037177482e+00
8.017703311328329363e+00 -0.000000000000000000e+00 -0.000000000000000000e+00 -8.462951284703915111e-02 8.137102168609551711e+00 -0.000000000000000000e+00 4.230975645230091592e-02 -6.412963085053316470e-02 8.148521000829315852e+00
8.032062689898422647e+00 -0.000000000000000000e+00 -0.000000000000000000e+00 -8.462951284703915111e-02 8.151675385646727889e+00 -0.000000000000000000e+00 4.230975645230091592e-02 -6.412963085053316470e-02 8.163114668526768369e+00
8.043044712744592317e+00 -0.000000000000000000e+00 -0.000000000000000000e+00 -8.462951284703915111e-02 8.162820951708491535e+00 -0.000000000000000000e+00 4.230975645230091592e-02 -6.412963085053316470e-02 8.174275875212503095e+00
8.048578794347752918e+00 -0.000000000000000000e+00 -0.000000000000000000e+00 -8.462951284703915111e-02 8.168437446316259454e+00 -0.000000000000000000e+00 4.230975645230091592e-02 -6.412963085053316470e-02 8.179900251471899253e+00
8.048304701076514078e+00 -0.000000000000000000e+00 -0.000000000000000000e+00 -8.462951284703915111e-02 8.168159271274516797e+00 -0.000000000000000000e+00 4.230975645230091592e-02 -6.412963085053316470e-02 8.179621686066406383e+00
8.043386637249373194e+00 -0.000000000000000000e+00 -0.000000000000000000e+00 -8.462951284703915111e-02 8.163167968119962481e+00 -0.000000000000000000e+00 4.230975645230091592e-02 -6.412963085053316470e-02 8.174623378593169676e+00
8.033705131843033698e+00 -0.000000000000000000e+00 -0.000000000000000000e+00 -8.462951284703915111e-02 8.153342286677542461e+00 -0.000000000000000000e+00 4.230975645230091592e-02 -6.412963085053316470e-02 8.164783908728120210e+00
8.019426416469618957e+00 -0.000000000000000000e+00 -0.000000000000000000e+00 -8.462951284703915111e-02 8.138850934064130627e+00 -0.000000000000000000e+00 4.230975645230091592e-02 -6.412963085053316470e-02 8.150272220333768303e+00
8.001350787790379115e+00 -0.000000000000000000e+00 -0.000000000000000000e+00 -8.462951284703915111e-02 8.120506124882377108e+00 -0.000000000000000000e+00 4.230975645230091592e-02 -6.412963085053316470e-02 8.131901667798199895e+00
7.979184293577395337e+00 -0.000000000000000000e+00 -0.000000000000000000e+00 -8.462951284703915111e-02 8.098009529395556072e+00 -0.000000000000000000e+00 4.230975645230091592e-02 -6.412963085053316470e-02 8.109373502737103223e+00
7.953597983502901592e+00 -0.000000000000000000e+00 -0.000000000000000000e+00 -8.462951284703915111e-02 8.072042190482379809e+00 -0.000000000000000000e+00 4.230975645230091592e-02 -6.412963085053316470e-02 8.083369723739686208e+00
7.928157696678853839e+00 -0.000000000000000000e+00 -0.000000000000000000e+00 -8.462951284703915111e-02 8.046223049382128067e+00 -0.000000000000000000e+00 4.230975645230091592e-02 -6.412963085053316470e-02 8.057514350523000246e+00
7.907781720701106742e+00 -0.000000000000000000e+00 -0.000000000000000000e+00 -8.462951284703915111e-02 8.025543636354058208e+00 -0.000000000000000000e+00 4.230975645230091592e-02 -6.412963085053316470e-02 8.036805917980974101e+00
7.895395650581056302e+00 -0.000000000000000000e+00 -0.000000000000000000e+00 -8.462951284703915111e-02 8.012973114083768778e+00 -0.000000000000000000e+00 4.230975645230091592e-02 -6.412963085053316470e-02 8.024217755440229638e+00
7.891644574321381000e+00 -0.000000000000000000e+00 -0.000000000000000000e+00 -8.462951284703915111e-02 8.009166177160643940e+00 -0.000000000000000000e+00 4.230975645230091592e-02 -6.412963085053316470e-02 8.020405476225855423e+00
7.895935669185546679e+00 -0.000000000000000000e+00 -0.000000000000000000e+00 -8.462951284703915111e-02 8.013521174592968421e+00 -0.000000000000000000e+00 4.230975645230091592e-02 -6.412963085053316470e-02 8.024766585044998735e+00
7.907438185609598769e+00 -0.000000000000000000e+00 -0.000000000000000000e+00 -8.462951284703915111e-02 8.025194985370998069e+00 -0.000000000000000000e+00 4.230975645230091592e-02 -6.412963085053316470e-02 8.036456777734729329e+00
7.925262287743699119e+00 -0.000000000000000000e+00 -0.000000000000000000e+00 -8.462951284703915111e-02 8.043284522299176231e+00 -0.000000000000000000e+00 4.230975645230091592e-02 -6.412963085053316470e-02 8.054571699791784667e+00
7.947071365484079664e+00 -0.000000000000000000e+00 -0.000000000000000000e+00 -8.462951284703915111e-02 8.065418378703032687e+00 -0.000000000000000000e+00 4.230975645230091592e-02 -6.412963085053316470e-02 8.076736616735846752e+00
7.968694923906365801e+00 -0.000000000000000000e+00 -0.000000000000000000e+00 -8.462951284703915111e-02 8.087363953052699728e+00 -0.000000000000000000e+00 4.230975645230091592e-02 -6.412963085053316470e-02 8.098712987409239616e+00
7.986286603066363732e+00 -0.000000000000000000e+00 -0.000000000000000000e+00 -8.462951284703915111e-02 8.105217605785698609e+00 -0.000000000000000000e+00 4.230975645230091592e-02 -6.412963085053316470e-02 8.116591694254019274e+00
7.997145833336364085e+00 -0.000000000000000000e+00 -0.000000000000000000e+00 -8.462951284703915111e-02 8.116238550655820561e+00 -0.000000000000000000e+00 4.230975645230091592e-02 -6.412963085053316470e-02 8.127628104865115333e+00
7.999942611586266850e+00 -0.000000000000000000e+00 -0.000000000000000000e+00 -8.462951284703915111e-02 8.119076978254975430e+00 -0.000000000000000000e+00 4.230975645230091592e-02 -6.412963085053316470e-02 8.130470515643343887e+00
7.995091313267800537e+00 -0.000000000000000000e+00 -0.000000000000000000e+00 -8.462951284703915111e-02 8.114153434874374682e+00 -0.000000000000000000e+00 4.230975645230091592e-02 -6.412963085053316470e-02 8.125540063031515103e+00
7.984424064795694775e+00 -0.000000000000000000e+00 -0.000000000000000000e+00 -8.462951284703915111e-02 8.103327330776689763e+00 -0.000000000000000000e+00 4.230975645230091592e-02 -6.412963085053316470e-02 8.114698766613280156e+00
7.970100760194949174e+00 -0.000000000000000000e+00 -0.000000000000000000e+00 -8.462951284703915111e-02 8.088790724917769737e+00 -0.000000000000000000e+00 4.230975645230091592e-02 -6.412963085053316470e-02 8.100141761469785706e+00
7.953456678050298656e+00 -0.000000000000000000e+00 -0.000000000000000000e+00 -8.462951284703915111e-02 8.071898780721888045e+00 -0.000000000000000000e+00 4.230975645230091592e-02 -6.412963085053316470e-02 8.083226112732354807e+00
7.936351880282665583e+00 -0.000000000000000000e+00 -0.000000000000000000e+00 -8.462951284703915111e-02 8.054539259970516341e+00 -0.000000000000000000e+00 4.230975645230091592e-02 -6.412963085053316470e-02 8.065842231287209785e+00
7.922001776674183482e+00 -0.000000000000000000e+00 -0.000000000000000000e+00 -8.462951284703915111e-02 8.039975456016158262e+00 -0.000000000000000000e+00 4.230975645230091592e-02 -6.412963085053316470e-02 8.051257989880495458e+00
7.914000570944532242e+00 -0.000000000000000000e+00 -0.000000000000000000e+00 -8.462951284703915111e-02 8.031855097110391029e+00 -0.000000000000000000e+00 4.230975645230091592e-02 -6.412963085053316470e-02 8.043126235638322186e+00
7.914487038139280450e+00 -0.000000000000000000e+00 -0.000000000000000000e+00 -8.462951284703915111e-02 8.032348808727437728e+00 -0.000000000000000000e+00 4.230975645230091592e-02 -6.412963085053316470e-02 8.043620640083380735e+00
7.923221050255676801e+00 -0.000000000000000000e+00 -0.000000000000000000e+00 -8.462951284703915111e-02 8.041212886901133672e+00 -0.000000000000000000e+00 4.230975645230091592e-02 -6.412963085053316470e-02 8.052497157258475369e+00
7.937334963891739648e+00 -0.000000000000000000e+00 -0.000000000000000000e+00 -8.462951284703915111e-02 8.055536983565319886e+00 -0.000000000000000000e+00 4.230975645230091592e-02 -6.412963085053316470e-02 8.066841354991952429e+00
7.952823861683979700e+00 -0.000000000000000000e+00 -0.000000000000000000e+00 -8.462951284703915111e-02 8.071256540515816980e+00 -0.000000000000000000e+00 4.230975645230091592e-02 -6.412963085053316470e-02 8.082582971267470384e+00
7.967011831694752466e+00 -0.000000000000000000e+00 -0.000000000000000000e+00 -8.462951284703915111e-02 8.085655796395363026e+00 -0.000000000000000000e+00 4.230975645230091592e-02 -6.412963085053316470e-02 8.097002433687700673e+00
7.978446513665279127e+00 -0.000000000000000000e+00 -0.000000000000000000e+00 -8.462951284703915111e-02 8.097260762536683032e+00 -0.000000000000000000e+00 4.230975645230091592e-02 -6.412963085053316470e-02 8.108623685130279313e+00
7.986137852424617378e+00 -0.000000000000000000e+00 -0.000000000000000000e+00 -8.462951284703915111e-02 8.105066639964702446e+00 -0.000000000000000000e+00 4.230975645230091592e-02 -6.412963085053316470e-02 8.116440516581242548e+00
7.989666066341155393e+00 -0.000000000000000000e+00 -0.000000000000000000e+00 -8.462951284703915111e-02 8.108647395698794114e+00 -0.000000000000000000e+00 4.230975645230091592e-02 -6.412963085053316470e-02 8.120026297206409893e+00
7.990106132200002875e+00 -0.000000000000000000e+00 -0.000000000000000000e+00 -8.462951284703915111e-02 8.109094014975919862e+00 -0.000000000000000000e+00 4.230975645230091592e-02 -6.412963085053316470e-02 8.120473543225926960e+00
7.988699162829943745e+00 -0.000000000000000000e+00 -0.000000000000000000e+00 -8.462951284703915111e-02 8.107666093154467291e+00 -0.000000000000000000e+00 4.230975645230091592e-02 -6.412963085053316470e-02 8.119043617596011231e+00
7.985456095210016869e+00 -0.000000000000000000e+00 -0.000000000000000000e+00 -8.462951284703915111e-02 8.104374730087544165e+00 -0.000000000000000000e+00 4.230975645230091592e-02 -6.412963085053316470e-02 8.115747635744673616e+00
7.980005656735381869e+00 -0.000000000000000000e+00 -0.000000000000000000e+00 -8.462951284703915111e-02 8.098843124213132683e+00 -0.000000000000000000e+00 4.230975645230091592e-02 -6.412963085053316470e-02 8.110208267342947863e+00
7.973865861343893080e+00 -0.000000000000000000e+00 -0.000000000000000000e+00 -8.462951284703915111e-02 8.092611895586962589e+00 -0.000000000000000000e+00 4.230975645230091592e-02 -6.412963085053316470e-02 8.103968294405110129e+00
7.969603998431459502e+00 -0.000000000000000000e+00 -0.000000000000000000e+00 -8.462951284703915111e-02 8.088286565426864527e+00 -0.000000000000000000e+00 4.230975645230091592e-02 -6.412963085053316470e-02 8.099636894488952521e+00
7.966425055521411558e+00 -0.000000000000000000e+00 -0.000000000000000000e+00 -8.462951284703915111e-02 8.085060282008322829e+00 -0.000000000000000000e+00 4.230975645230091592e-02 -6.412963085053316470e-02 8.096406083612473381e+00
7.962838774684124488e+00 -0.000000000000000000e+00 -0.000000000000000000e+00 -8.462951284703915111e-02 8.081420594625459586e+00 -0.000000000000000000e+00 4.230975645230091592e-02 -6.412963085053316470e-02 8.092761288640009099e+00
7.960523414173036549e+00 -0.000000000000000000e+00 -0.000000000000000000e+00 -8.462951284703915111e-02 8.079070753990849951e+00 -0.000000000000000000e+00 4.230975645230091592e-02 -6.412963085053316470e-02 8.090408150464382331e+00
7.961331020788210644e+00 -0.000000000000000000e+00 -0.000000000000000000e+00 -8.462951284703915111e-02 8.079890387405793462e+00 -0.000000000000000000e+00 4.230975645230091592e-02 -6.412963085053316470e-02 8.091228934073704693e+00
7.965003904440985494e+00 -0.000000000000000000e+00 -0.000000000000000000e+00 -8.462951284703915111e-02 8.083617967284720152e+00 -0.000000000000000000e+00 4.230975645230091592e-02 -6.412963085053316470e-02 8.094961744882521515e+00
7.970904795534679899e+00 -0.000000000000000000e+00 -0.000000000000000000e+00 -8.462951284703915111e-02 8.089606733873578648e+00 -0.000000000000000000e+00 4.230975645230091592e-02 -6.412963085053316470e-02 8.100958915535001026e+00
7.977876283829693271e+00 -0.000000000000000000e+00 -0.000000000000000000e+00 -8.462951284703915111e-02 8.096682040892979160e+00 -0.000000000000000000e+00 4.230975645230091592e-02 -6.412963085053316470e-02 8.108044151364250496e+00
7.985473755145361174e+00 -0.000000000000000000e+00 -0.000000000000000000e+00 -8.462951284703915111e-02 8.104392653013373859e+00 -0.000000000000000000e+00 4.230975645230091592e-02 -6.412963085053316470e-02 8.115765583821358931e+00
7.993298424572206962e+00 -0.000000000000000000e+00 -0.000000000000000000e+00 -8.462951284703915111e-02 8.112333846655472414e+00 -0.000000000000000000e+00 4.230975645230091592e-02 -6.412963085053316470e-02 8.123717921376309548e+00
8.001685755616204432e+00 -0.000000000000000000e+00 -0.000000000000000000e+00 -8.462951284703915111e-02 8.120846081016487972e+00 -0.000000000000000000e+00 4.230975645230091592e-02 -6.412963085053316470e-02 8.132242100994565348e+00
8.012023205036731710e+00 -0.000000000000000000e+00 -0.000000000000000000e+00 -8.462951284703915111e-02 8.131337474727866166e+00 -0.000000000000000000e+00 4.230975645230091592e-02 -6.412963085053316470e-02 8.142748217326195359e+00
8.021865264285874986e+00 -0.000000000000000000e+00 -0.000000000000000000e+00 -8.462951284703915111e-02 8.141326100965326162e+00 -0.000000000000000000e+00 4.230975645230091592e-02 -6.412963085053316470e-02 8.152750860647969944e+00
8.026768580610909254e+00 -0.000000000000000000e+00 -0.000000000000000000e+00 -8.462951284703915111e-02 8.146302437000038310e+00 -0.000000000000000000e+00 4.230975645230091592e-02 -6.412963085053316470e-02 8.157734179996481316e+00
8.026292594440830541e+00 -0.000000000000000000e+00 -0.000000000000000000e+00 -8.462951284703915111e-02 8.145819362490758664e+00 -0.000000000000000000e+00 4.230975645230091592e-02 -6.412963085053316470e-02 8.157250427587106500e+00
8.023606107465058201e+00 -0.000000000000000000e+00 -0.000000000000000000e+00 -8.462951284703915111e-02 8.143092868612278323e+00 -0.000000000000000000e+00 4.230975645230091592e-02 -6.412963085053316470e-02 8.154520107607650559e+00
8.021886019702400006e+00 -0.000000000000000000e+00 -0.000000000000000000e+00 -8.462951284703915111e-02 8.141347165469072777e+00 -0.000000000000000000e+00 4.230975645230091592e-02 -6.412963085053316470e-02 8.152771954711544922e+00
8.019666290238832929e+00 -0.000000000000000000e+00 -0.000000000000000000e+00 -8.462951284703915111e-02 8.139094380010783780e+00 -0.000000000000000000e+00 4.230975645230091592e-02 -6.412963085053316470e-02 8.150516007909454075e+00
8.013277451255914841e+00 -0.000000000000000000e+00 -0.000000000000000000e+00 -8.462951284703915111e-02 8.132610399059529982e+00 -0.000000000000000000e+00 4.230975645230091592e-02 -6.412963085053316470e-02 8.144022927958577185e+00
8.000817362120937304e+00 -0.000000000000000000e+00 -0.000000000000000000e+00 -8.462951284703915111e-02 8.119964755489663233e+00 -0.000000000000000000e+00 4.230975645230091592e-02 -6.412963085053316470e-02 8.131359538699859613e+00
7.984331617157851113e+00 -0.000000000000000000e+00 -0.000000000000000000e+00 -8.462951284703915111e-02 8.103233506417771181e+00 -0.000000000000000000e+00 4.230975645230091592e-02 -6.412963085053316470e-02 8.114604810590121176e+00
7.968291866968483461e+00 -0.000000000000000000e+00 -0.000000000000000000e+00 -8.462951284703915111e-02 8.086954893829366497e+00 -0.000000000000000000e+00 4.230975645230091592e-02 -6.412963085053316470e-02 8.098303354151211053e+00
7.955134015609037768e+00 -0.000000000000000000e+00 -0.000000000000000000e+00 -8.462951284703915111e-02 8.073601097028841878e+00 -0.000000000000000000e+00 4.230975645230091592e-02 -6.412963085053316470e-02 8.084930817907558520e+00
7.943591515856143204e+00 -0.000000000000000000e+00 -0.000000000000000000e+00 -8.462951284703915111e-02 8.061886707492396553e+00 -0.000000000000000000e+00 4.230975645230091592e-02 -6.412963085053316470e-02 8.073199989515739361e+00
7.932912524330633985e+00 -0.000000000000000000e+00 -0.000000000000000000e+00 -8.462951284703915111e-02 8.051048685465314492e+00 -0.000000000000000000e+00 4.230975645230091592e-02 -6.412963085053316470e-02 8.062346758443204919e+00
7.924803266888961417e+00 -0.000000000000000000e+00 -0.000000000000000000e+00 -8.462951284703915111e-02 8.042818665750786522e+00 -0.000000000000000000e+00 4.230975645230091592e-02 -6.412963085053316470e-02 8.054105189504157991e+00
7.921382605294319923e+00 -0.000000000000000000e+00 -0.000000000000000000e+00 -8.462951284703915111e-02 8.039347063996372000e+00 -0.000000000000000000e+00 4.230975645230091592e-02 -6.412963085053316470e-02 8.050628716035785004e+00
7.923368072370372772e+00 -0.000000000000000000e+00 -0.000000000000000000e+00 -8.462951284703915111e-02 8.041362098456227514e+00 -0.000000000000000000e+00 4.230975645230091592e-02 -6.412963085053316470e-02 8.052646578202363514e+00
7.929126237888638684e+00 -0.000000000000000000e+00 -0.000000000000000000e+00 -8.462951284703915111e-02 8.047206014013887909e+00 -0.000000000000000000e+00 4.230975645230091592e-02 -6.412963085053316470e-02 8.058498694553819064e+00
7.937097884065442699e+00 -0.000000000000000000e+00 -0.000000000000000000e+00 -8.462951284703915111e-02 8.055296373170346413e+00 -0.000000000000000000e+00 4.230975645230091592e-02 -6.412963085053316470e-02 8.066600406946923485e+00
7.946599212332936091e+00 -0.000000000000000000e+00 -0.000000000000000000e+00 -8.462951284703915111e-02 8.064939194293364366e+00 -0.000000000000000000e+00 4.230975645230091592e-02 -6.412963085053316470e-02 8.076256759884048009e+00
7.956989469935484394e+00 -0.000000000000000000e+00 -0.000000000000000000e+00 -8.462951284703915111e-02 8.075484182600236593e+00 -0.000000000000000000e+00 4.230975645230091592e-02 -6.412963085053316470e-02 8.086816546021738716e+00
7.966907001995183535e+00 -0.000000000000000000e+00 -0.000000000000000000e+00 -8.462951284703915111e-02 8.085549405581780036e+00 -0.000000000000000000e+00 4.230975645230091592e-02 -6.412963085053316470e-02 8.096895893575979386e+00
7.975016183611292497e+00 -0.000000000000000000e+00 -0.000000000000000000e+00 -8.462951284703915111e-02 8.093779348340751412e+00 -0.000000000000000000e+00 4.230975645230091592e-02 -6.412963085053316470e-02 8.105137385450468912e+00
7.980260889477185593e+00 -0.000000000000000000e+00 -0.000000000000000000e+00 -8.462951284703915111e-02 8.099102157856057360e+00 -0.000000000000000000e+00 4.230975645230091592e-02 -6.412963085053316470e-02 8.110467664488778539e+00
7.982251524696489575e+00 -0.000000000000000000e+00 -0.000000000000000000e+00 -8.462951284703915111e-02 8.101122437421718558e+00 -0.000000000000000000e+00 4.230975645230091592e-02 -6.412963085053316470e-02 8.112490779121122486e+00
7.981610912565046512e+00 -0.000000000000000000e+00 -0.000000000000000000e+00 -8.462951284703915111e-02 8.100472285357190216e+00 -0.000000000000000000e+00 4.230975645230091592e-02 -6.412963085053316470e-02 8.111839714695843639e+00
7.978412254979482476e+00 -0.000000000000000000e+00 -0.000000000000000000e+00 -8.462951284703915111e-02 8.097225993673822231e+00 -0.000000000000000000e+00 4.230975645230091592e-02 -6.412963085053316470e-02 8.108588867476699491e+00
7.972291006057234952e+00 -0.000000000000000000e+00 -0.000000000000000000e+00 -8.462951284703915111e-02 8.091013587708303589e+00 -0.000000000000000000e+00 4.230975645230091592e-02 -6.412963085053316470e-02 8.102367743614362183e+00
7.964198356359963427e+00 -0.000000000000000000e+00 -0.000000000000000000e+00 -8.462951284703915111e-02 8.082800423059751438e+00 -0.000000000000000000e+00 4.230975645230091592e-02 -6.412963085053316470e-02 8.094143053394155629e+00
7.956591288769534920e+00 -0.000000000000000000e+00 -0.000000000000000000e+00 -8.462951284703915111e-02 8.075080071759419553e+00 -0.000000000000000000e+00 4.230975645230091592e-02 -6.412963085053316470e-02 8.086411868089186328e+00
7.951378382229594699e+00 -0.000000000000000000e+00 -0.000000000000000000e+00 -8.462951284703915111e-02 8.069789535122341206e+00 -0.000000000000000000e+00 4.230975645230091592e-02 -6.412963085053316470e-02 8.081113907218846037e+00
7.948152311178831475e+00 -0.000000000000000000e+00 -0.000000000000000000e+00 -8.462951284703915111e-02 8.066515421736124125e+00 -0.000000000000000000e+00 4.230975645230091592e-02 -6.412963085053316470e-02 8.077835199254074894e+00
7.946086091910611771e+00 -0.000000000000000000e+00 -0.000000000000000000e+00 -8.462951284703915111e-02 8.064418432532024283e+00 -0.000000000000000000e+00 4.230975645230091592e-02 -6.412963085053316470e-02 8.075735267335915069e+00
7.945110746556993675e+00 -0.000000000000000000e+00 -0.000000000000000000e+00 -8.462951284703915111e-02 8.063428562429015400e+00 -0.000000000000000000e+00 4.230975645230091592e-02 -6.412963085053316470e-02 8.074744008143902363e+00
7.945466471465333136e+00 -0.000000000000000000e+00 -0.000000000000000000e+00 -8.462951284703915111e-02 8.063789584758861650e+00 -0.000000000000000000e+00 4.230975645230091592e-02 -6.412963085053316470e-02 8.075105537097833519e+00
7.947550501864026451e+00 -0.000000000000000000e+00 -0.000000000000000000e+00 -8.462951284703915111e-02 8.065904650334907444e+00 -0.000000000000000000e+00 4.230975645230091592e-02 -6.412963085053316470e-02 8.077223570754792803e+00
7.951170133151339137e+00 -0.000000000000000000e+00 -0.000000000000000000e+00 -8.462951284703915111e-02 8.069578184819937050e+00 -0.000000000000000000e+00 4.230975645230091592e-02 -6.412963085053316470e-02 8.080902260327146536e+00
7.955276045756469294e+00 -0.000000000000000000e+00 -0.000000000000000000e+00 -8.462951284703915111e-02 8.073745242275098377e+00 -0.000000000000000000e+00 4.230975645230091592e-02 -6.412963085053316470e-02 8.085075165432650479e+00
7.959513218927025235e+00 -0.000000000000000000e+00 -0.000000000000000000e+00 -8.462951284703915111e-02 8.078045515016434308e+00 -0.000000000000000000e+00 4.230975645230091592e-02 -6.412963085053316470e-02 8.089381472767247061e+00
7.964712120373582671e+00 -0.000000000000000000e+00 -0.000000000000000000e+00 -8.462951284703915111e-02 8.083321837996329862e+00 -0.000000000000000000e+00 4.230975645230091592e-02 -6.412963085053316470e-02 8.094665200034523167e+00
7.972348310788371251e+00 -0.000000000000000000e+00 -0.000000000000000000e+00 -8.462951284703915111e-02 8.091071745816527994e+00 -0.000000000000000000e+00 4.230975645230091592e-02 -6.412963085053316470e-02 8.102425983335118431e+00
7.982740011644612110e+00 -0.000000000000000000e+00 -0.000000000000000000e+00 -8.462951284703915111e-02 8.101618198869967813e+00 -0.000000000000000000e+00 4.230975645230091592e-02 -6.412963085053316470e-02 8.112987236274365799e+00
7.996142801313118831e+00 -0.000000000000000000e+00 -0.000000000000000000e+00 -8.462951284703915111e-02 8.115220581577556658e+00 -0.000000000000000000e+00 4.230975645230091592e-02 -6.412963085053316470e-02 8.126608707266075982e+00
8.011985775648188479e+00 -0.000000000000000000e+00 -0.000000000000000000e+00 -8.462951284703915111e-02 8.131299487944529503e+00 -0.000000000000000000e+00 4.230975645230091592e-02 -6.412963085053316470e-02 8.142710177235166213e+00
8.027170807511570416e+00 -0.000000000000000000e+00 -0.000000000000000000e+00 -8.462951284703915111e-02 8.146710653824218440e+00 -0.000000000000000000e+00 4.230975645230091592e-02 -6.412963085053316470e-02 8.158142969674363698e+00
8.036448746112963448e+00 -0.000000000000000000e+00 -0.000000000000000000e+00 -8.462951284703915111e-02 8.156126758584283820e+00 -0.000000000000000000e+00 4.230975645230091592e-02 -6.412963085053316470e-02 8.167572288096369704e+00
8.038885846507278998e+00 -0.000000000000000000e+00 -0.000000000000000000e+00 -8.462951284703915111e-02 8.158600152040687448e+00 -0.000000000000000000e+00 4.230975645230091592e-02 -6.412963085053316470e-02 8.170049152476792642e+00
8.036037335264166970e+00 -0.000000000000000000e+00 -0.000000000000000000e+00 -8.462951284703915111e-02 8.155709221044755708e+00 -0.000000000000000000e+00 4.230975645230091592e-02 -6.412963085053316470e-02 8.167154164624212953e+00
8.027365893490596704e+00 -0.000000000000000000e+00 -0.000000000000000000e+00 -8.462951284703915111e-02 8.146908645004522498e+00 -0.000000000000000000e+00 4.230975645230091592e-02 -6.412963085053316470e-02 8.158341238696069198e+00
8.012812094540647578e+00 -0.000000000000000000e+00 -0.000000000000000000e+00 -8.462951284703915111e-02 8.132138112298155974e+00 -0.000000000000000000e+00 4.230975645230091592e-02 -6.412963085053316470e-02 8.143549978434018399e+00
7.995284359737566682e+00 -0.000000000000000000e+00 -0.000000000000000000e+00 -8.462951284703915111e-02 8.114349356173592653e+00 -0.000000000000000000e+00 4.230975645230091592e-02 -6.412963085053316470e-02 8.125736259268149908e+00