-3.816774246099999962e-02 8.036037476037000360e+00 2.365815136800000079e-02 2.503884741000000132e-03 4.024678808735999702e+00 5.776121514000000061e-03 1.010980245400000012e-02 3.988163484684999815e+00 4.080405926575999764e+00 3.904221519312999877e+00 8.025870397475999951e+00 1.687659831099999966e-02 3.939363532865999940e+00 8.013034291341000426e+00 4.075570671584999971e+00 3.936919155203999932e+00 4.023018215500999695e+00 8.837300729000000313e-03 3.963821631093999986e+00 3.993535916996000079e+00 4.075584724859999675e+00 1.224997049360000007e-01 7.869712082983999935e+00 4.209666324160999729e+00 1.971879704313000081e+00 1.900622624351000045e+00 2.133887456672999949e+00 2.062313305212000181e+00 1.895963958687999940e+00 6.136320156071000120e+00 2.014467104930000030e+00 5.995021928995999616e+00 2.097670359803999851e+00 2.015678994621000086e+00 5.941889977678999735e+00 6.116009619746000325e+00 6.082359139605999943e+00 1.851466219883000086e+00 6.041787729566999943e+00 6.022073592624000327e+00 6.059155275433999677e+00 2.135427245484000203e+00 6.011891406755999867e+00 5.930028425477999576e+00 6.113266107991999654e+00 5.972131411185999994e+00 1.984127632337000069e+00 2.037834671535000197e+00 1.974031718101000088e+00 1.981326451421000057e+00 8.006219965168000385e+00 4.000420668699999904e-02 2.036226147070999914e+00 1.987623650533000053e+00 1.934633738088000099e+00 1.583150634299999859e-02 2.023423573640000139e+00 1.942189521708000077e+00 1.995338637896000078e+00 3.992138690617999863e+00 7.935886700142999572e+00 1.945555584142000027e+00 6.019874582089999926e+00 1.956856104561000009e+00 -9.851301777000000606e-03 5.977925846113000041e+00 1.934326093768000021e+00 6.030437256693000236e+00 8.022142413374000469e+00 7.878680965376999801e+00 6.099015218383000203e+00 2.030420895989000218e+00 1.926792749065999955e+00 4.097286224679000277e+00 2.016303475462999817e+00 1.873471188179000047e+00 6.095171872363000176e+00 4.028147079654000429e+00 7.901685410486000372e+00 6.081886436360999681e+00 5.987914252761999734e+00 1.931733223965999890e+00 4.075100214897999784e+00 6.010830035576000263e+00 5.965157867801999636e+00 1.970472266020999896e+00 8.014629987686999968e+00 3.862275962478999958e+00 2.024075724878999782e+00 1.979939642304000103e+00 5.843588758697999985e+00 7.999658877894000319e+00 1.991453201954000107e+00 5.904790175198000313e+00 2.029084869097999899e+00 4.118254756139999806e+00 3.929434536223999963e+00 1.964312920113999938e+00 6.048691757051999573e+00 6.002239648990999932e+00 -1.656903400400000156e-02 6.000455584414999599e+00 5.946619648959000415e+00 6.010154778992999880e+00 8.011217712066999397e+00 3.855163312070999826e+00 6.060578786063000045e+00 2.028882268613000139e+00 5.891504098387000177e+00 4.112586763804999990e+00 1.981863008568000017e+00 5.940913254090999907e+00 6.066512735889999952e+00 4.003022956438999636e+00 3.897866623201999836e+00 6.039458800148000073e+00 6.030440188335999707e+00 5.954796998816999754e+00 4.076257925086999911e+00 6.044494119344999916e+00
-2.848186344900000000e-02 8.031145829983000084e+00 3.450205181100000212e-02 3.931190246000000089e-03 4.015124325401999705e+00 2.725363888299999968e-02 7.926231107001999732e+00 3.997928951661999797e+00 4.073805792386999691e+00 3.934588335278999871e+00 7.987915669895000015e+00 2.083219890600000040e-02 3.944506885471000146e+00 8.037761216702000056e+00 4.059396142040999855e+00 3.933649791497999981e+00 4.019322110284000438e+00 1.524352093800000058e-02 3.934826501343999805e+00 3.990730155836000215e+00 4.077140751482000169e+00 1.553705176069999916e-01 7.894576936870000061e+00 4.164662141172000176e+00 2.022496691689999793e+00 1.914575146585999921e+00 2.134644514686999894e+00 2.068492049142999889e+00 1.871223694828999973e+00 6.166229198134000278e+00 2.005808451679000015e+00 6.034774415001000314e+00 2.095231173601999952e+00 2.031103582547999942e+00 5.910183659137000056e+00 6.090243216392999592e+00 6.071567428077999651e+00 1.823181511147000000e+00 6.017666827851999578e+00 6.029838642624000045e+00 6.079417522576999744e+00 2.125481990584999981e+00 6.000580369569999739e+00 5.913765518954999578e+00 6.072422778626999751e+00 5.968294663295999669e+00 1.974542948255000097e+00 2.065108541247000051e+00 1.972158616386000096e+00 2.082218015816999834e+00 7.998304306840999800e+00 5.363498046000000213e-03 2.033932086634000047e+00 2.027019957997000077e+00 1.946394756057999942e+00 3.013985686800000133e-02 1.985801010429000035e+00 1.983817144794999932e+00 2.058522046199999789e+00 3.934985112279000052e+00 7.955283223118000180e+00 1.908845425018000030e+00 6.006193432462000104e+00 1.994776586431000087e+00 5.565941133999999929e-02 5.953941564385999641e+00 1.917183011806000037e+00 6.049692817907000197e+00 7.975542188102999752e+00 -2.833318644100000019e-02 6.127244357222999760e+00 2.039185781057000213e+00 1.936721681370999981e+00 4.151987370162999902e+00 2.012567912455000219e+00 1.903695909974999934e+00 6.085519214892999962e+00 4.067902631158999860e+00 7.901479702409999639e+00 6.119333090915000106e+00 5.978228857397000162e+00 1.853961696430999950e+00 4.144249936212999863e+00 5.968469113553999783e+00 5.996756537215000016e+00 1.897959821723999907e+00 8.056704502717000338e+00 3.832983491600999937e+00 2.012982226341000214e+00 1.908306771821000059e+00 5.795638899969000057e+00 7.978219648309999634e+00 2.064879816036000015e+00 5.795967482954999639e+00 2.032794292200000186e+00 4.179747034434000419e+00 3.984998049106000195e+00 1.926852198386000081e+00 6.114826917402999662e+00 5.962289471084999626e+00 -3.888749673800000195e-02 5.952437015735999815e+00 5.961968915254000301e+00 5.947081504767999682e+00 7.973551370668999994e+00 3.873591880862000014e+00 6.052412755328999694e+00 2.041593681325000187e+00 5.852163833966000261e+00 4.133766757537999936e+00 1.958408927617000028e+00 5.934728115039000329e+00 6.034789986774000248e+00 3.975600313166999911e+00 3.932706504532999858e+00 6.073002940858000187e+00 6.030584618227999627e+00 5.957738363049999819e+00 4.097084186993000365e+00 6.101040858824999802e+00
-2.040421686099999979e-02 8.026081376747999485e+00 4.254921733199999723e-02 3.287514927999999823e-03 4.007759108628000000e+00 4.803615034400000178e-02 7.889613406358000347e+00 4.008886429716000066e+00 4.067224268716000068e+00 3.965492776885000126e+00 7.950513514340999954e+00 2.222012384000000146e-02 4.033310923251000268e+00 -1.260294783599999989e-02 4.046415123318999996e+00 3.932924830069000066e+00 4.017270116388999668e+00 2.143830036100000114e-02 3.906319664156999938e+00 3.990838304581000084e+00 4.078716974557000441e+00 1.900213540089999986e-01 7.911846758853999795e+00 4.129140081316999833e+00 2.050515897022000100e+00 1.932149233190999960e+00 2.127171682581999956e+00 2.078297589232000142e+00 1.848826830598000015e+00 6.192910139245999979e+00 1.999167112147999914e+00 6.057440460828999562e+00 2.098792381233999915e+00 2.038795846914999821e+00 5.900215380717000357e+00 6.066230883042999622e+00 6.057011234348999906e+00 1.785293517509999983e+00 6.016290526483000001e+00 6.033893053437999754e+00 6.084393406920000302e+00 2.113412009315999818e+00 5.994520354621999836e+00 5.907369363483000235e+00 6.050411941366999891e+00 5.965073497126000213e+00 1.970389984224000024e+00 2.084339888805999852e+00 1.962789960907000086e+00 2.153293166579000051e+00 7.986380187947999865e+00 -8.543113203000000239e-03 2.028156849370999826e+00 2.075802125861000214e+00 1.963050446061999965e+00 5.016066204999999889e-02 1.967663907414000102e+00 2.028431341234000040e+00 2.104442987926999908e+00 3.923549561058000013e+00 1.697746624499999954e-02 1.885813303256000051e+00 5.976403803370000212e+00 2.019937439931999812e+00 1.122554666980000032e-01 5.935446227876999714e+00 1.915023211962999961e+00 6.068422645639000024e+00 7.959948349061000350e+00 -1.615089732500000000e-02 6.158188869791000108e+00 2.054345379092000101e+00 1.940620852252999962e+00 4.198819275508999915e+00 2.009967463290000200e+00 1.928503391920999954e+00 6.104407224480000060e+00 4.051168358458999919e+00 7.896832908256000039e+00 6.169523858753000134e+00 5.951216030982999783e+00 1.807368969014000015e+00 4.122271240686999683e+00 5.937729801778999672e+00 5.988201094955000414e+00 1.893553867637000065e+00 8.666439999999999647e-05 3.853117985177000104e+00 2.008602350622000099e+00 1.851864669053000068e+00 5.766862540353000277e+00 7.984573689608000180e+00 2.127395386240999997e+00 5.714418228308000280e+00 2.050374991822999871e+00 4.171760460279999805e+00 3.995309411532999899e+00 1.919752886651999946e+00 6.173428171401999620e+00 5.942788053043999597e+00 -3.037137285300000114e-02 5.913411439206000431e+00 5.979229533577999689e+00 5.930529754644999763e+00 7.963033731459000286e+00 3.883390415765000103e+00 6.063926850640999788e+00 2.045421047605000098e+00 5.831651051017000320e+00 4.124286176094000389e+00 1.957838303671000091e+00 5.936222687779999951e+00 6.001402412561000155e+00 3.953497632834999997e+00 3.953931407784999852e+00 6.090241145354999830e+00 6.020598718556000151e+00 5.965198669333999781e+00 4.066953227278999883e+00 6.122930928646000304e+00
-1.408698664000000017e-02 8.022599808939000710e+00 4.711673363499999795e-02 -1.039910360000000062e-04 4.003102062954000395e+00 6.691228913499999709e-02 7.857374529700000387e+00 4.020367363725999788e+00 4.061760363699000287e+00 3.997087353146000055e+00 7.915716535851999858e+00 2.135802446500000007e-02 4.036349220877999855e+00 5.363692802000000030e-03 4.037356301354999566e+00 3.936005425957000092e+00 4.017485820306999855e+00 2.709302170300000034e-02 3.880027223892000166e+00 3.995057319870999990e+00 4.080531382369000148e+00 2.242072622930000037e-01 7.924815521251000305e+00 4.105007990342000035e+00 2.052196108930000040e+00 1.953603310824999939e+00 2.112427198829000208e+00 2.089109003954999988e+00 1.853254297497000103e+00 6.207925278865999985e+00 2.002215317474000056e+00 6.063008577265000199e+00 2.106206142433999950e+00 2.033516826892999951e+00 5.907000140694999679e+00 6.049148146437000051e+00 6.044755766546000331e+00 1.751514473804999916e+00 6.038179344296000117e+00 6.028501009729000160e+00 6.073126061777999851e+00 2.103115246309000153e+00 5.998126322796999865e+00 5.903618399942000217e+00 6.048788223713000178e+00 5.963763726608999782e+00 1.972875874702000099e+00 2.094056016067999959e+00 1.940640747923999987e+00 2.176914254135000171e+00 8.004448897093000781e+00 2.306288711900000149e-02 2.018283297242000174e+00 2.132453720858999979e+00 1.981259711701000015e+00 8.001887679399999342e-02 1.973290864321000093e+00 2.077143990769000137e+00 2.120887945550999909e+00 3.944822695321000161e+00 7.959910837113000071e+00 1.871851356372000064e+00 5.930071133708000097e+00 2.029741054756000196e+00 8.357373814599999839e-02 5.925476282200000000e+00 1.930785885824999992e+00 6.082020124139000394e+00 7.959880880924999680e+00 -4.505724548799999729e-02 6.191710175072000055e+00 2.071956037970999809e+00 1.935901231539999934e+00 4.216847268119000347e+00 2.006810342622999954e+00 1.941462371762000094e+00 6.155887155665999977e+00 3.997406172898999799e+00 7.894126554868000412e+00 6.226363917297000228e+00 5.906356684178000194e+00 1.807908517698000095e+00 4.061410405181000272e+00 5.927532405474000399e+00 6.068503394805000006e+00 1.771038990477999953e+00 8.078241492535999768e+00 3.896619393273000220e+00 2.014537062812999935e+00 1.817068004630000067e+00 5.772110192756000124e+00 8.002132327478999940e+00 2.165696622272999861e+00 5.674656218654999584e+00 2.080199803086999921e+00 4.117726155514000119e+00 3.969716699765000190e+00 1.945287149941999916e+00 6.220496960060000191e+00 5.947164396523000107e+00 -2.082449906300000084e-02 5.889147351853000423e+00 5.999226891548000040e+00 5.974644998732999923e+00 7.984942526234999782e+00 3.878963552677999971e+00 6.095999538875999768e+00 2.034080488303000145e+00 5.839630583933000274e+00 4.095912448311000098e+00 1.975921903619999975e+00 5.945211672259000046e+00 5.966705849274999807e+00 3.952274409930999877e+00 3.946445762459999784e+00 6.081285915099000405e+00 6.001445996751000322e+00 5.980583594489999655e+00 4.021457604985999801e+00 6.105223249663000118e+00
-8.718416348000000010e-03 8.020302161544000441e+00 4.843774362099999981e-02 -6.084616555999999669e-03 4.000308178593999564e+00 8.310503133100000106e-02 7.829267583911000195e+00 4.029991335397999919e+00 4.057425987647000021e+00 4.027401197772999986e+00 7.884150241669999559e+00 1.907958305600000043e-02 4.037185528023999659e+00 1.903586099000000031e-02 4.030969906500000199e+00 3.941988851692999951e+00 4.019220397566999559e+00 3.204648653799999775e-02 3.856852787238000069e+00 4.002521696468999579e+00 4.081881107453000368e+00 2.554558276319999766e-01 7.937949158719000309e+00 4.090447839551000442e+00 2.034828602830000222e+00 1.974557948549999997e+00 2.100645118306999848e+00 2.093774032719999845e+00 1.878901256418000099e+00 6.205196601045000371e+00 2.013564980241000058e+00 6.056827275725000348e+00 2.111369321783000075e+00 2.014623290049000204e+00 5.920933935516999647e+00 6.044478743568999946e+00 6.043162946185000273e+00 1.738975128624999922e+00 6.071944212857999901e+00 6.012199371220000366e+00 6.053495777508000053e+00 2.101761675760999815e+00 6.011736533348999600e+00 5.893862812909000048e+00 6.059378488155999776e+00 5.965951509426999699e+00 1.979146489589000080e+00 2.095481110773000033e+00 1.905408509137999973e+00 2.147568238584999900e+00 8.049170997306999809e+00 8.691187911599999871e-02 2.009155326125999785e+00 2.183892641158999837e+00 1.998198570695999932e+00 1.117548594919999944e-01 1.994647589343000016e+00 2.127661101446999936e+00 2.099268336020999826e+00 3.965318455169000167e+00 7.917552182214000034e+00 1.859485586766000065e+00 5.876038015936999592e+00 2.028267296620000160e+00 -3.061623651999999859e-03 5.933106565822000356e+00 1.955567078477000065e+00 6.079079032020000106e+00 7.947083975044000326e+00 7.864070153305999789e+00 6.217687210978000145e+00 2.081599226752000042e+00 1.924384032942999978e+00 4.201110648675999926e+00 2.002052866780000162e+00 1.938941762321999995e+00 6.218311996804000152e+00 3.949851239800000080e+00 7.892905620231999819e+00 6.264628514043000251e+00 5.856206634699000269e+00 1.852177628251000074e+00 4.036688329469999559e+00 5.941812357146000423e+00 6.109503728663000288e+00 1.732534012087999953e+00 8.024312487837999441e+00 3.917190898693000189e+00 2.032290714989000158e+00 1.802105333347999938e+00 5.813292820813000361e+00 8.000740255839000170e+00 2.171420580068999850e+00 5.676610122265000058e+00 2.109694449073999944e+00 4.080968552306000419e+00 3.931909501068000079e+00 1.989987811190000011e+00 6.249569636263999861e+00 5.959098369930999617e+00 -4.608700904699999934e-02 5.879860767358000118e+00 6.017728995308999629e+00 6.055900143618999643e+00 8.014086513977000337e+00 3.869208527694000033e+00 6.133648855189999693e+00 2.005921718405000220e+00 5.876554634731999904e+00 4.079816021290000094e+00 1.991529248121999940e+00 5.948879948837999976e+00 5.934104650856999896e+00 3.978194696754000059e+00 3.916172099289000119e+00 6.042242916705999889e+00 5.978177059250000092e+00 6.001779843991999819e+00 4.018346102420999877e+00 6.069882810999000178e+00
-2.877905739000000129e-03 8.018061976931999624e+00 4.688038417100000299e-02 -1.350280480999999956e-02 3.999259591675000003e+00 9.617760940500000300e-02 7.805716179823000367e+00 4.036474536414999648e+00 4.054402273230000020e+00 4.053787239412000254e+00 7.856835405045999643e+00 1.502232444599999918e-02 4.035647814292000035e+00 2.849636653800000086e-02 4.026657234394999563e+00 3.948985948759000220e+00 4.022192958477000424e+00 3.586458286199999818e-02 3.837524614422000102e+00 4.012319080494999746e+00 4.082648868424000099e+00 2.808524233940000170e-01 7.954591584135999760e+00 4.083522965192999621e+00 2.008126267395999864e+00 1.987994972080000089e+00 2.097919543475000204e+00 2.087021365455000055e+00 1.903414714463999902e+00 6.187296215008999845e+00 2.024303049988999792e+00 6.046188565998000364e+00 2.108929331241999883e+00 1.989293714123000045e+00 5.945238946714000328e+00 6.055904328479000398e+00 6.057416711106999863e+00 1.742946670657000041e+00 6.102662228652000032e+00 5.991264441003999686e+00 6.036813529399999823e+00 2.116800094508000107e+00 6.032034864053000156e+00 5.885377785642999626e+00 6.070065728793999860e+00 5.971746789722000237e+00 1.983550660739000104e+00 2.091853454093000053e+00 1.860419821232000004e+00 2.076699186381000040e+00 8.073629758039000848e+00 1.203409019460000007e-01 2.007929544707999892e+00 2.216203866871000017e+00 2.012337142383000099e+00 1.204368267260000069e-01 2.017170609113000168e+00 2.171861820959999800e+00 2.044901302652000208e+00 3.986049504682999789e+00 7.872299117772000088e+00 1.849950350804000054e+00 5.824537851641999886e+00 1.937788682454000044e+00 8.024391756858999969e+00 5.965723973041000328e+00 1.973339987164000053e+00 6.052194756272999854e+00 7.926863962766000249e+00 7.836191933020000278e+00 6.220762941589000228e+00 2.075961648652000058e+00 1.912737654380000096e+00 4.170838361855000009e+00 1.998650209156999979e+00 1.923467207045000071e+00 6.260545918587999914e+00 3.926523324741999943e+00 7.891319677490000295e+00 6.256764337519999941e+00 5.819555537838000170e+00 1.911752371193000011e+00 4.047268377985999699e+00 5.975398279985999928e+00 6.146343522578000318e+00 1.730135769272999946e+00 7.953414675702999759e+00 3.922513204637999795e+00 2.061429592465000127e+00 1.800062167954999959e+00 5.876743475126000149e+00 7.990842555695000016e+00 2.146444733780000114e+00 5.709887776447000185e+00 2.129080165666000113e+00 4.081206033216999707e+00 3.899428183321000052e+00 2.037593009351999829e+00 6.257341903436000052e+00 5.872447931894999584e+00 7.991147032158999686e+00 5.886852874909999755e+00 6.030840579419000314e+00 6.129133326840999985e+00 8.030386995697000430e+00 3.868028696030000102e+00 6.154926867594999962e+00 1.968478007312999933e+00 5.934758977241999744e+00 4.086292083655999718e+00 1.981570482194999983e+00 5.930744853880000278e+00 5.906305034353000138e+00 4.010658315087000325e+00 3.885558219698999949e+00 5.979774828879000026e+00 5.957011025159999917e+00 6.024057934330000030e+00 4.062212401923999572e+00 6.049935608490000227e+00
4.364419272999999801e-03 8.015608704792999362e+00 4.297502841100000331e-02 -2.084583881299999913e-02 4.001065198664999656e+00 1.055989466939999954e-01 7.788603077339000258e+00 4.040410641176999995e+00 4.053653439872999975e+00 4.074613077685000029e+00 7.836347031316999612e+00 7.784167693999999652e-03 4.033048765762000443e+00 3.362996070500000323e-02 4.025246600293000299e+00 3.955704512995999789e+00 4.027009378412000018e+00 3.731065123499999886e-02 3.822880594709999968e+00 4.024061111134000335e+00 4.084125409657000105e+00 2.976892527089999851e-01 7.976815518063999910e+00 4.083109807355000065e+00 1.983896268627000081e+00 1.986631212640000088e+00 2.103636476545000189e+00 2.071465073165999815e+00 1.919429098908999931e+00 6.161864102810000077e+00 2.024302683355000188e+00 6.037530831297999612e+00 2.099696573755000184e+00 1.968603989240000018e+00 5.979233149567999561e+00 6.081274056946000428e+00 6.082289447663000281e+00 1.748749435629000093e+00 6.109974982590999915e+00 5.976940536336000420e+00 6.032041148582999668e+00 2.149308876549000047e+00 6.052314340529999726e+00 5.895164130170000405e+00 6.076559282039999843e+00 5.978583544281000250e+00 1.982339685306000021e+00 2.088706066999999944e+00 1.811447309325999955e+00 1.988989699683999968e+00 8.052942547046999522e+00 8.575472793699999430e-02 2.017765354201999983e+00 2.225184014744999939e+00 2.021476660808000148e+00 9.599827587199999401e-02 2.029884182087999811e+00 2.195069488429000071e+00 1.972887229381000029e+00 4.012927667615000082e+00 7.867374247607999749e+00 1.849018867314000003e+00 5.781360475146000155e+00 2.015275633863999882e+00 -2.092459857999999853e-02 6.015418161761999727e+00 1.971581533159999955e+00 6.008761553424999846e+00 7.932630356998999765e+00 7.849018403711999881e+00 6.190705778831000039e+00 2.057212300514000169e+00 1.909363948086999940e+00 4.145715998264999591e+00 2.001659895458999916e+00 1.904962878225999967e+00 6.261659941496000137e+00 3.918469636930999922e+00 7.897969444824999741e+00 6.198802333207000359e+00 5.808330781650999697e+00 1.949020007372000096e+00 4.056844768987000194e+00 6.016275889477999961e+00 6.171912253103999824e+00 1.775142062957999922e+00 7.937568419034000122e+00 3.934182555530000069e+00 2.096485424089999938e+00 1.807744258939000037e+00 5.939886568852999815e+00 8.003893284339000047e+00 2.103397584995000180e+00 5.760087846705999937e+00 2.136632400743000204e+00 4.091176817541000155e+00 3.884846561699999867e+00 2.074288968358000140e+00 6.244919929624000332e+00 5.847391160373000218e+00 7.987060946975000242e+00 5.911446490734999948e+00 6.038208684875000287e+00 6.154950148892999628e+00 8.026495466080000085e+00 3.882990221615000070e+00 6.143469690214000245e+00 1.937783332446000095e+00 6.000334350482000367e+00 4.100960092919000211e+00 1.938206335557999926e+00 5.884692376461999608e+00 5.890269207491000358e+00 4.013653430530999877e+00 3.870948205773999895e+00 5.917270602089000242e+00 5.944920209438000036e+00 6.045208691192000217e+00 4.103035300019000076e+00 6.068360905871999833e+00
1.271246849299999954e-02 8.012981458484999209e+00 3.774434489700000117e-02 -2.712517370399999961e-02 4.006397228625999674e+00 1.106198046040000049e-01 7.779382815498999904e+00 4.042411627576999678e+00 4.055752981163999848e+00 4.131370488162000143e+00 7.760869807250999841e+00 8.086536767450999363e+00 4.030375730511999599e+00 3.438275846999999663e-02 4.027320378972000015e+00 3.961916450477000140e+00 4.033574995064999946e+00 3.494690600400000152e-02 3.812882210465999844e+00 4.036718728616000007e+00 4.087564830338999755e+00 3.063781269110000260e-01 8.004879893264000401e+00 4.087387247509999710e+00 1.968730268485999968e+00 1.966676462472999987e+00 2.113640631552999860e+00 2.054653202796000055e+00 1.931169552439000014e+00 6.138341608444999764e+00 2.007607796742000072e+00 6.031887685535999744e+00 2.087437586684000035e+00 1.962380281378000024e+00 6.010099090256000309e+00 6.115165871067000047e+00 6.108570406356999882e+00 1.755942229935999910e+00 6.088085578535999964e+00 5.977731441497000198e+00 6.039424981277999649e+00 2.188244432460999978e+00 6.064395765931999804e+00 5.925324966161999996e+00 6.085936276004000334e+00 5.983367307175000427e+00 1.976757171420000070e+00 2.087194287866000142e+00 1.766577433701000066e+00 1.912740618146999916e+00 8.011604189033999290e+00 3.697994062999999942e-02 2.033532109408000110e+00 2.214900337743999970e+00 2.021866767364000061e+00 5.882932809400000240e-02 2.029274577073000074e+00 2.179361154903999953e+00 1.902126084140999929e+00 4.021346507985000152e+00 7.915203731863999614e+00 1.853952796393999902e+00 5.749815546281999978e+00 2.006119232901999894e+00 4.211970230200000331e-02 6.063223035242000236e+00 1.949030003185000082e+00 5.970237799431999726e+00 7.980230375025000100e+00 7.895651494592000219e+00 6.132797469805000290e+00 2.036071571053999829e+00 1.919040845914000037e+00 4.123656055232999940e+00 2.015501620664000182e+00 1.895052965776000020e+00 6.222397511862999941e+00 3.922048594387999909e+00 7.921098885506999920e+00 6.119712625881000179e+00 5.820104560773000202e+00 1.938430067139000013e+00 4.054609338569999721e+00 6.048605506327000114e+00 6.184862898125000008e+00 1.859237482728999913e+00 7.991647336411999980e+00 3.930569200562000098e+00 2.125699757286000136e+00 1.828849754656000082e+00 5.983944361174000193e+00 8.032180643208999271e+00 2.059432589227999877e+00 5.809363933642999633e+00 2.134208786746000008e+00 4.097574417618999654e+00 3.897791606019000099e+00 2.091037600163999866e+00 6.213773609732999859e+00 5.809824629968000309e+00 8.023703966889000228e+00 5.947829761392999792e+00 6.041000515219000278e+00 6.123653451732000264e+00 7.992292880124000298e+00 3.911979533692000022e+00 6.098999749219999877e+00 1.927341911654000040e+00 6.054163682110999645e+00 4.117909544370999875e+00 1.876769249717000099e+00 5.823068802453000181e+00 5.896227846436000064e+00 3.979912767519000028e+00 3.869684264371000104e+00 5.888857636816999808e+00 5.949130925778000289e+00 6.064646455734999719e+00 4.105237888445000038e+00 6.121644334035999613e+00
2.115349687400000164e-02 8.010197641084999987e+00 3.232821387600000318e-02 -3.156114033000000096e-02 4.014640658675999951e+00 1.104247540209999934e-01 7.778645761780000001e+00 4.042454363946999862e+00 4.060486837137999849e+00 4.138564584813000380e+00 7.759461083072999976e+00 8.074989680650000778e+00 4.027057214064000412e+00 3.082216071199999838e-02 4.032447208344000167e+00 3.967995896553000001e+00 4.040477869835999769e+00 2.833866717300000115e-02 3.806254997528999873e+00 4.048702273914000394e+00 4.092968251901000443e+00 3.118681822180000007e-01 8.037376774882000419e+00 4.094303550588000107e+00 1.963977263774999926e+00 1.933047676224999956e+00 2.122871018514000063e+00 2.043733482998999929e+00 1.947484375206999907e+00 6.126972375724999864e+00 1.975399156561999936e+00 6.022134462920000431e+00 2.076280727507000101e+00 1.973211116259000031e+00 6.022006318108999778e+00 6.153320967498999927e+00 6.132756666563000003e+00 1.780802774721000015e+00 6.054171334617000078e+00 5.992402400538000329e+00 6.050145216423000072e+00 2.210734353753999848e+00 6.065239677779000083e+00 5.952457971257000047e+00 6.107266533758999749e+00 5.982919921990999867e+00 1.972402931231000078e+00 2.082169694311000185e+00 1.739548294945000073e+00 1.872842213780999909e+00 7.982322079974999873e+00 4.538528006999999892e-02 2.044803706888000061e+00 2.194850871182000063e+00 2.012196997315999880e+00 2.668142278799999836e-02 2.017284511288000015e+00 2.119636538582999830e+00 1.847302819847000066e+00 3.989833478676000134e+00 1.351916214700000021e-02 1.853418706438000108e+00 5.734385498297999817e+00 1.996609198727999912e+00 5.076513630599999854e-02 6.087217601235000330e+00 1.918011755353999925e+00 5.958457240581999770e+00 8.044119733520000537e+00 -1.438816798500000028e-02 6.070273059717999686e+00 2.024468557576000194e+00 1.940508738286000012e+00 4.094778046304000441e+00 2.041724494661000033e+00 1.900333450943000102e+00 6.162687586062999934e+00 3.944652198580000046e+00 -1.393215308899999928e-02 6.063998866700000434e+00 5.846724746867000277e+00 1.884729239019999891e+00 4.054705622152000366e+00 6.059665115808000380e+00 6.183931485132999839e+00 1.952039063421999954e+00 8.044436116781000123e+00 3.890534858057999923e+00 2.134062586463000066e+00 1.868106591202000066e+00 6.001764064010999711e+00 8.032789556438000744e+00 2.028156028724000137e+00 5.844973225633999903e+00 2.121232840998999780e+00 4.115841076178999636e+00 3.934761521727000222e+00 2.083597129463000019e+00 6.163377265132999661e+00 5.866150636167000165e+00 -1.352456265199999952e-02 5.984450643123000013e+00 6.039697726448999937e+00 6.062164311816999884e+00 7.922174949632999841e+00 3.948663591512000082e+00 6.039523271083999667e+00 1.938297987416000012e+00 6.075539906374999966e+00 4.143987515580000114e+00 1.833381703266000029e+00 5.770802559074000193e+00 5.928933380283000432e+00 3.956962038556000039e+00 3.871992707222999819e+00 5.918427111140999841e+00 5.975628889894999851e+00 6.078655682015999595e+00 4.091768003160000333e+00 6.177022790157000287e+00