-2.863508920339999895e+04
-2.863437424929999906e+04
-2.863387429429999975e+04
-2.863388129130000016e+04
-2.863389106600000014e+04
-2.863363243380000131e+04
-2.863362133990000075e+04
-2.863366376079999827e+04
-2.863348138180000024e+04
-2.863339071600000170e+04
-2.863367696559999968e+04
-2.863370300309999948e+04
-2.863344780660000106e+04
-2.863338508899999943e+04
-2.863328112889999829e+04
-2.863302338450000025e+04
-2.863278533260000040e+04
-2.863247812350000095e+04
-2.863229134980000163e+04
-2.863211060920000091e+04
-2.863137012519999917e+04
-2.863169901129999926e+04
-2.863129238500000065e+04
-2.863136508079999840e+04
-2.863096277729999929e+04
-2.863101076459999967e+04
-2.863074786350000068e+04
-2.863068484679999892e+04
-2.863094822520000162e+04
-2.863087732139999935e+04
-2.863168179310000050e+04
-2.863219079490000149e+04
-2.863222931619999872e+04
-2.863246967099999893e+04
-2.863241990129999976e+04
-2.863268847670000105e+04
-2.863275694559999829e+04
-2.863280416089999926e+04
-2.863278449539999929e+04
-2.863274096709999867e+04
-2.863287908819999939e+04
-2.863309227010000177e+04
-2.863338213940000060e+04
-2.863386074400000143e+04
-2.863387038720000055e+04
-2.863365000689999943e+04
-2.863353282559999934e+04
-2.863363557489999948e+04
-2.863390415040000153e+04
-2.863391259609999906e+04
-2.863406118900000001e+04
-2.863401659379999910e+04
-2.863384557340000174e+04
-2.863366347659999883e+04
-2.863378837750000093e+04
-2.863385274579999896e+04
-2.863378855180000028e+04
-2.863384300879999864e+04
-2.863372819220000019e+04
-2.863373325390000173e+04
-2.863374054769999930e+04
-2.863376450549999936e+04
-2.863339329429999998e+04
-2.863311844869999913e+04
-2.863301184930000090e+04
-2.863290777339999840e+04
-2.863295629560000089e+04
-2.863275818920000165e+04
-2.863286940630000026e+04
-2.863249497500000143e+04
-2.863174672080000164e+04
-2.863149687569999878e+04
-2.863200740969999970e+04
-2.863181485009999960e+04
-2.863161537070000122e+04
-2.863126047820000167e+04
-2.863150528019999911e+04
-2.863215546760000143e+04
-2.863178739409999980e+04
-2.863162520159999985e+04
-2.863177029949999996e+04
-2.863164150489999884e+04
-2.863224147630000152e+04
-2.863235017739999967e+04
-2.863255904340000052e+04
-2.863225740030000088e+04
-2.863220355869999912e+04
-2.863227433979999842e+04
-2.863256794150000133e+04
-2.863272784650000176e+04
-2.863313336640000125e+04
-2.863332848649999869e+04
-2.863347334920000139e+04
-2.863389011359999859e+04
-2.863380977859999985e+04
-2.863391029039999921e+04
-2.863369761980000112e+04
-2.863369593539999914e+04
-2.863369725459999972e+04
-2.863374464810000063e+04
-2.863366431200000079e+04
-2.863375283700000000e+04
-2.863387663070000053e+04
-2.863371624660000089e+04
-2.863384613019999961e+04
-2.863393459290000101e+04
-2.863370432380000057e+04
-2.863353956889999972e+04
-2.863356591539999863e+04
-2.863377540769999905e+04
-2.863363326830000005e+04
-2.863377560810000068e+04
-2.863376178609999988e+04
-2.863340246649999972e+04
-2.863326096479999978e+04
-2.863345728790000067e+04
-2.863291323869999906e+04
-2.863251166860000012e+04
-2.863234580949999872e+04
-2.863251952689999962e+04
-2.863213115739999921e+04
-2.863194958469999983e+04
-2.863147907869999835e+04
-2.863219161560000066e+04
-2.863191658689999895e+04
-2.863152890850000040e+04
-2.863193936440000107e+04
-2.863157417599999826e+04
-2.863198253800000020e+04
-2.863125690939999913e+04
-2.863243848720000096e+04
-2.863153656110000156e+04
-2.863135239129999900e+04
-2.863143470539999907e+04
-2.863173486699999921e+04
-2.863239497299999857e+04
-2.863183293509999930e+04
-2.863258903030000147e+04
-2.863277773040000102e+04
-2.863301922189999823e+04
-2.863299543930000073e+04
-2.863294596580000143e+04
-2.863344592389999889e+04
-2.863323495589999948e+04
-2.863325527209999927e+04
-2.863315391119999913e+04
-2.863336912819999998e+04
-2.863372335300000123e+04
-2.863363677800000005e+04
-2.863376960120000149e+04
-2.863368958389999898e+04
-2.863385451309999917e+04
-2.863367323060000126e+04
-2.863386743249999927e+04
-2.863400499320000017e+04
-2.863368944159999955e+04
-2.863375492550000126e+04
-2.863379159870000149e+04
-2.863360318900000129e+04
-2.863367815630000041e+04
-2.863370306419999906e+04
-2.863357520049999948e+04
-2.863334256459999960e+04
-2.863337159400000019e+04
-2.863335533890000079e+04
-2.863302043780000167e+04
-2.863296597570000085e+04
-2.863265346240000144e+04
-2.863292955649999931e+04
-2.863278717820000020e+04
-2.863243941009999980e+04
-2.863251798250000138e+04
-2.863268092160000015e+04
-2.863249729479999951e+04
-2.863180846050000036e+04
-2.863185479520000081e+04
-2.863192750270000033e+04
-2.863146480689999953e+04
-2.863113002699999925e+04
-2.863105822959999932e+04
-2.863122717619999821e+04
-2.863111045540000123e+04
-2.863164403880000100e+04
-2.863195068190000165e+04
-2.863225926479999907e+04
-2.863201350380000076e+04
-2.863223822909999944e+04
-2.863201023189999978e+04
-2.863211476160000166e+04
-2.863264308470000105e+04
-2.863291913189999832e+04
-2.863264954099999886e+04
-2.863281768730000113e+04
-2.863311680049999995e+04
-2.863319818899999882e+04
-2.863332263690000036e+04
-2.863348410009999861e+04
-2.863331281339999987e+04
-2.863323221810000177e+04
-2.863332460400000127e+04
-2.863375665920000029e+04
-2.863393626919999951e+04
-2.863388985110000067e+04
-2.863373332329999903e+04
-2.863373568570000134e+04
-2.863384587660000034e+04
-2.863377949430000081e+04
-2.863377824170000167e+04
-2.863369054939999842e+04
-2.863363747370000056e+04
-2.863347283569999854e+04
-2.863347901300000012e+04
-2.863334437180000168e+04
-2.863351532980000047e+04
-2.863363681549999819e+04
-2.863345649639999829e+04
-2.863318580690000090e+04
-2.863292219409999961e+04
-2.863306471640000018e+04
-2.863320553559999826e+04
-2.863303404859999864e+04
-2.863265591000000131e+04
-2.863242117100000178e+04
-2.863222358860000168e+04
-2.863186961280000105e+04
-2.863193348490000062e+04
-2.863185774210000091e+04
-2.863192930619999970e+04
-2.863166063950000171e+04
-2.863148466729999927e+04
-2.863148735440000019e+04
-2.863135799760000009e+04
-2.863181595340000058e+04
-2.863158218779999879e+04
-2.863158892470000137e+04
-2.863176976579999973e+04
-2.863187981450000007e+04
-2.863218381120000049e+04
-2.863272722799999974e+04
-2.863257366140000158e+04
-2.863220516499999940e+04
-2.863246168110000144e+04
-2.863299891389999902e+04
-2.863345115969999824e+04
-2.863327560250000170e+04
-2.863317670870000075e+04
-2.863321212400000150e+04
-2.863332920789999844e+04
-2.863335114339999927e+04
-2.863351547170000049e+04
-2.863354175350000151e+04
-2.863364522030000080e+04
-2.863360095770000044e+04
-2.863348287649999838e+04
-2.863369509960000141e+04
-2.863383658320000177e+04
-2.863384004329999880e+04
-2.863380489060000036e+04
-2.863383446120000008e+04
-2.863372514769999907e+04
-2.863376111980000132e+04
-2.863376608539999870e+04
-2.863350434830000086e+04
-2.863349890990000131e+04
-2.863353148670000155e+04
-2.863326492570000119e+04
-2.863311023140000179e+04
-2.863305089890000090e+04
-2.863333583519999956e+04
-2.863313567909999983e+04
-2.863282660129999931e+04
-2.863287643920000119e+04
-2.863294454870000118e+04
-2.863194367620000048e+04
-2.863182842789999995e+04
-2.863233333480000147e+04
-2.863234293909999906e+04
-2.863210351219999939e+04
-2.863133942640000168e+04
-2.863174795539999832e+04
-2.863148370799999975e+04
-2.863164358680000078e+04
-2.863182078650000039e+04
-2.863183952549999958e+04
-2.863145424099999946e+04
