-1.117978241820000024e-01 -7.774558019799999997e-02 -1.084990692899999998e-01 -1.151047689790000023e-01 1.165395132130000039e-01 6.943336001500000076e-02 7.747596817599999852e-02 7.181377302399999385e-02 -6.881228135000000412e-02 3.016594846300000091e-02 -6.641318414999999864e-03 -1.719908505480000072e-01 -8.119396281000000604e-02 -9.491674394099999801e-02 1.534267605400000123e-01 1.125149155009999985e-01 6.789247438699999582e-02 1.387929605500000038e-02 -6.266587366400000469e-02 8.147176891700000367e-02 2.344317090099999959e-02 1.111279183729999981e-01 -1.826245815199999956e-01 1.522024923180000100e-01 -1.783200296199999868e-01 -5.282255592199999739e-02 1.321476543750000066e-01 6.194164592899999849e-02 -3.547867914050000238e-01 7.404518858399999903e-02 -3.714695617120000182e-01 -4.500980008959999945e-01 2.071265462190000073e-01 -4.560211073300000223e-02 1.625989410489999953e-01 4.120342729600000309e-02 -1.609053538749999901e-01 -2.735240904039999976e-01 2.589876501739999948e-01 1.148716140130000007e-01 -1.904093547390000030e-01 -1.267929217930000019e-01 -3.328707319199999959e-02 9.096156083600000219e-02 5.303393027570000307e-01 -8.326710821499999637e-02 1.605022059060000061e-01 -1.327035024619999948e-01 1.583597743199999935e-02 -8.374676222000000669e-02 -2.243091018210000009e-01 2.048107451999999981e-02 4.474094418800000222e-02 -9.153730655999999660e-03 1.153608209549999986e-01 8.972587331200000682e-02 1.149749873870000022e-01 8.908454600999999445e-03 -1.101439789269999942e-01 1.125868185279999961e-01 9.233153841900000602e-02 1.301774107320000096e-01 -9.883154286299999924e-02 -7.008882060599999630e-02 3.066364006760000094e-01 7.438254388999999793e-03 5.726589895399999963e-02 -1.351593917700000085e-02 4.667142795800000021e-02 -1.558411142460000010e-01 -2.688045464499999940e-02 4.342987115199999776e-02 -4.676002708999999619e-03 2.153723361559999883e-01 2.329314796500000020e-02 9.937383124999999220e-03 1.255313908300000059e-01 -3.861734716469999995e-01 -7.891081032900000569e-02 1.014602543680000052e-01 -7.662074163200000010e-02 7.947636261899999888e-02 -4.211850018830000097e-01 9.793264749699999439e-02 1.010936802800000041e-02 -1.876820523999999865e-02 -2.370034755390000025e-01 1.646471451650000084e-01 1.056995453399999993e-02 3.932000135899999665e-02 4.073827243599999898e-02 5.564455560099999809e-02 5.325198018099999708e-02 1.104830243140000057e-01 1.368464703199999931e-02 -2.659673572610000147e-01 -1.285423401230000040e-01 1.426208318699999922e-01 -4.086486682399999987e-02 7.224718900399999810e-02 2.209662924739999867e-01 2.692277233099999931e-02 -9.265752997000000282e-03 1.241117896349999972e-01 -2.041871998030000135e-01 1.623466253810000037e-01 1.429951178240000120e-01 -2.768656129399999985e-02 8.450019255900000081e-02 -1.568677216999999832e-02 1.611333825930000019e-01 1.843726317600000164e-02 3.075560893500000129e-02 -2.583626633400000136e-02 1.045661353910000008e-01 3.664574297200000330e-02 -7.314345397299999718e-02 1.516777145599999994e-02 -1.699232567719999865e-01 -1.046137454829999952e-01
-2.399307922299999951e-01 -9.702206339999999707e-02 -4.202105818030000273e-01 -3.026581933279999803e-01 3.007007026519999959e-01 -1.044296889720000010e-01 3.184907666440000007e-01 1.591849913489999935e-01 -3.034240610700000146e-02 3.992818758899999848e-02 1.751986988800000034e-02 -3.907194046979999835e-01 -1.692795789569999931e-01 -5.060583954059999501e-01 4.530799560350000088e-01 3.423712967010000274e-01 2.168549905259999910e-01 -3.087965150500000117e-02 4.223903766099999790e-02 4.053045282330000054e-01 -2.952814451899999845e-02 7.620953669100000161e-02 -3.598844422940000176e-01 4.065505669000000211e-01 -1.207966836913000108e+00 1.920969809360000002e-01 -4.720432964049999791e-01 1.948104884769999989e-01 -5.751829810999999765e-03 -1.534700886020000099e-01 1.018493415889999976e-01 -9.020846051409999733e-01 3.100732370820000194e-01 -3.922628472940000166e-01 1.215832799940999909e+00 5.747845765199999929e-02 -2.295663446279999909e-01 -5.666576900999999999e-01 1.206607429071999915e+00 -1.979570201939999941e-01 -8.233644778990000246e-01 -1.220624638930000033e-01 2.541290146360000168e-01 5.661695013180000347e-01 9.512862988189999536e-01 4.111289679900000105e-02 5.261586939390000550e-01 -8.252105092370000117e-01 -1.285153331839999913e-01 -5.117643926630000006e-01 -1.264620510689999922e-01 3.240944716429999817e-01 -6.660667335299999547e-02 1.712719786309999936e-01 8.096821230299999783e-02 8.357716724699999766e-02 3.355492759109999779e-01 4.683406097000000073e-02 -2.897939582690000071e-01 8.448829444680000522e-01 -4.364295704300000245e-02 2.471099623980000104e-01 -2.818944296249999981e-01 -2.238078872810000119e-01 -1.488201751699999922e-02 9.588032484500000341e-02 2.595754673560000114e-01 -6.934366144000000259e-03 5.870186726460000504e-01 -6.248812337110000170e-01 4.549198331899999975e-02 1.178670644600000039e-01 -1.061934280469999936e-01 -1.376223364020000006e-01 2.070652271899999994e-02 -9.208599809699999361e-02 4.938402653330000169e-01 -1.030294562204000064e+00 -9.125563158499999661e-02 2.254401094579999987e-01 -3.079901533689999860e-01 5.269006755830000222e-01 -1.740114600710999992e+00 1.812136670099999958e-01 2.699249941999999972e-02 7.500110802600000459e-02 -2.281747647590000039e-01 9.344408490819999802e-01 1.142035460409999981e-01 2.568746793300000220e-01 3.141862604430000205e-01 5.267941074219999464e-01 -1.881238776810000013e-01 4.578175962730000048e-01 2.511231816510000048e-01 -1.292249942683000086e+00 -8.327711497130000362e-01 5.330964151199999446e-01 -1.395070709060000080e-01 3.550087142519999794e-01 5.899802927899999716e-01 1.469710236379999924e-01 2.835031553099999838e-02 8.069456435570000474e-01 5.023815403150000414e-01 -1.672514883790000018e-01 3.352922777139999977e-01 -1.493620604839999977e-01 3.137347206559999990e-01 -5.820109897709999647e-01 4.056128743510000190e-01 1.346969138909999975e-01 -3.636768336300000293e-02 6.989485141600000617e-02 -2.338035495970000044e-01 -2.918911793039999925e-01 -1.827226459409999892e-01 6.908894598999999748e-02 -9.889074173090000031e-01 -6.155235708370000447e-01
-2.740365959370000271e-01 2.336326329699999968e-02 -5.158835119329999719e-01 -3.985855725140000083e-01 2.923990412249999893e-01 -3.063163393389999878e-01 4.646636721319999941e-01 -3.786044232400000153e-02 6.305596931899999646e-02 -3.515253242400000200e-02 2.055251607549999915e-01 -3.278419351199999832e-01 -2.711917112650000239e-01 -6.690693864450000250e-01 4.790007578850000169e-01 4.497302310840000095e-01 2.229314196730000086e-01 -8.922986858299999935e-02 2.477430582379999968e-01 4.891622784790000122e-01 -7.556322776700000188e-02 -3.586533471399999673e-02 -2.559324818150000014e-01 4.620530646359999882e-01 -1.379309214220999946e+00 1.825765065609999960e-01 -4.217690458660000030e-01 4.576969815799999952e-02 1.504767829446000071e+00 -6.643048168920000496e-01 5.028875209550000003e-01 -9.405762025339999832e-01 1.842492475770000082e-01 -6.849304874449999581e-01 7.694825995180000211e-01 2.901651278249999799e-01 4.835046300399999802e-02 1.756541725100000118e-01 1.130012764853000062e+00 -5.500608291330000288e-01 -9.049905068550000431e-01 5.626400066799999711e-02 4.349946103469999881e-01 7.263104823799999832e-02 9.967898184369999859e-01 5.364162139099999671e-02 6.210748106190000506e-01 -9.706774031060000363e-01 -2.238815839180000045e-01 -8.174702405720000176e-01 5.364659614560000067e-01 8.100934898270000240e-01 -8.214180777099999720e-02 1.258961539800000085e-01 1.566310299700000158e-02 1.764816067190000115e-01 4.056984803770000148e-01 5.792407903900000099e-02 -5.056219454239999633e-01 5.594897851410000067e-01 -4.958856137539999764e-01 1.547457038020000064e-01 -2.960165812930000140e-01 -2.739949805610000233e-01 -1.623999497001999970e+00 1.085123038679999957e-01 3.067040674789999755e-01 -9.747634177300000535e-02 2.477885328190000125e-01 -7.234055726610000292e-01 3.132602826599999862e-02 4.060528803699999661e-02 -1.561346209059999990e-01 -5.168700935309999966e-01 -1.703065238200000137e-02 -2.095421021689999885e-01 5.520068972480000058e-01 -6.538636355169999970e-01 1.848587729399999921e-02 1.116897171649999937e-01 -3.329820791249999967e-01 8.042908305249999446e-01 -6.701139564220000011e-01 3.334142280399999825e-01 4.815337910800000093e-02 1.681073011589999944e-01 -5.592811633940000249e-01 3.972107392850000029e-01 1.661228918919999964e-01 3.709478231819999805e-01 5.670170380660000120e-01 1.796203463409999923e-01 -4.194981122190000189e-01 7.064000549619999791e-01 2.069617247459999976e-01 -8.371900608490000506e-01 -6.214058746030000080e-01 5.537361969090000002e-01 -2.112518897220000136e-01 4.079370168650000017e-01 3.340538976900000318e-02 2.399636212269999902e-01 3.007762734299999907e-02 1.038352083221000033e+00 5.551094687409999784e-01 -2.707806585520000087e-01 3.405577966880000140e-01 -2.642744947439999992e-01 4.676390478049999855e-01 -3.524115807579999982e-01 3.252796791690000244e-01 1.252782078330000048e-01 -4.588931256099999800e-02 3.464466940409999807e-01 -5.252592358630000513e-01 -4.627584204090000042e-01 -1.766924385210000004e-01 1.187670869049999994e-01 -2.894995980460000062e-01 -7.175415149039999774e-01
-1.584577491960000029e-01 1.352613486610000082e-01 -4.696832162499999797e-01 -3.698728350080000005e-01 2.392951534049999884e-01 -4.318386388189999758e-01 6.041484376769999942e-01 -3.327978006000000266e-01 1.446083291820000061e-01 -2.796583902409999767e-01 4.909969762210000255e-01 -1.804300965039999927e-01 -3.564761129010000085e-01 -6.481292986729999539e-01 3.633047669580000139e-01 3.883751478729999818e-01 1.814481083410000029e-01 -1.109134671669999989e-01 4.843658014819999802e-01 4.200440160939999945e-01 -1.035933830019999946e-01 -1.451741348579999868e-01 -1.076807109700000063e-02 4.031771945639999744e-01 -9.414287734259999540e-01 -3.767487094199999803e-02 1.821044245879999968e-01 -3.248942867099999798e-01 1.093706384245000107e+00 -9.430100845990000424e-01 4.322509800379999989e-01 -5.999200585370000338e-01 -1.236102367849999939e-01 -7.049759005310000104e-01 2.604260482760000217e-01 6.176066693270000352e-01 5.326004770269999744e-01 1.193170503676000083e+00 5.524220681989999715e-01 -5.789693060739999897e-01 -4.248643933219999891e-01 4.415928540099999799e-01 4.894616777160000209e-01 -3.817188537139999949e-01 6.077922372959999597e-01 3.189022159670000245e-01 3.689476288390000080e-01 -8.121969811539999640e-01 -2.126317166059999986e-01 -9.021422067550000090e-01 4.982239699609999906e-01 6.052502301879999491e-01 9.101551198999999898e-03 -9.997338043400000318e-02 -3.014338428800000108e-02 5.515181719000000066e-02 2.645795035519999949e-01 2.337997673800000162e-02 -6.543622321580000456e-01 -9.294337690399999408e-02 -5.709473494979999675e-01 1.495628298599999996e-02 -1.118422507860000054e-01 -1.951686173640000133e-01 -1.038017770374999982e+00 2.889920968579999805e-01 1.522842148740000123e-01 -2.855968877919999871e-01 -2.720349112800000135e-01 -3.006097737280000182e-01 -1.314484729020000131e-01 -1.441754544770000035e-01 -1.188716036069999982e-01 -6.034054810790000500e-01 -3.369497460299999969e-02 -2.685972150989999752e-01 1.670019870999999989e-01 1.633884345449999886e-01 2.208228215899999888e-02 -3.273282299890000191e-01 -8.440066358099999888e-02 7.530016340809999598e-01 7.387818123860000474e-01 4.142764037119999743e-01 4.334869941600000276e-02 3.250940959929999874e-01 -8.780017111129999607e-01 -4.936946901259999798e-01 1.935830313640000133e-01 3.452996582980000229e-01 6.077662402479999670e-01 -3.949697542060000011e-01 -5.634067685200000453e-01 7.089153882900000037e-01 -2.052021109599999962e-02 3.723887103340000060e-01 -1.849326483809999866e-01 3.048361632939999843e-01 -3.203969964919999858e-01 1.238620076719999935e-01 -6.817019521329999998e-01 2.452244922729999999e-01 -3.671897824599999749e-02 6.164944305880000197e-01 8.980590644499999997e-02 -9.658585502699999770e-02 8.591844452300000101e-02 -2.871001581709999861e-01 4.780680657540000156e-01 2.443549690200000069e-01 -4.535937655600000284e-02 -8.990394532600000377e-02 4.702620477100000196e-02 4.841831157820000175e-01 -3.989111878620000273e-01 -5.074986664259999447e-01 -6.733681858999999992e-02 8.956097690500000597e-02 7.972682536249999785e-01 -3.030278900960000077e-01
5.414921119800000099e-02 8.273713476499999775e-02 -4.101092554460000206e-01 -1.838033527010000112e-01 2.776763341039999999e-01 -4.956038865890000089e-01 8.013640066360000480e-01 -4.626427636650000119e-01 2.285342265310000009e-01 -6.381942859070000029e-01 7.697302868009999743e-01 -2.273084697580000091e-01 -3.172993801310000084e-01 -6.390589899690000131e-01 3.345163539489999782e-01 1.505648542430000070e-01 1.938840222079999953e-01 -1.666562808619999891e-01 6.610001732739999580e-01 3.311731326630000249e-01 -6.601120144800000367e-02 -2.725709722419999981e-01 1.571536818270000135e-01 3.361261453930000087e-01 -4.449522763970000239e-01 -3.883030375279999946e-01 4.948880352009999983e-01 -5.964115480410000503e-01 -1.684887516599999913e-01 -7.336431643709999673e-01 -3.556626058600000084e-02 -1.861726863439999990e-01 -4.044981568009999862e-01 -2.967058625710000119e-01 5.368418464480000374e-01 8.435841012639999636e-01 8.505521964269999735e-01 8.697146843880000366e-01 -1.343337635590000079e-01 -2.054343045500000020e-01 2.011228587030000070e-01 8.396387822630000386e-01 3.441325710320000120e-01 4.936729593499999957e-02 -2.657912064199999952e-02 3.975937745609999796e-01 -1.964585812680000043e-01 -4.904024118820000111e-01 -1.469712854970000038e-01 -6.792967681120000156e-01 -3.858936615590000119e-01 -5.570937501510000445e-01 1.412482825180000068e-01 -3.500178934539999731e-01 -5.066243430100000195e-02 -4.164239396009999927e-01 4.856456030999999757e-03 -1.191247472079999953e-01 -5.345743748250000316e-01 -6.238011027999999791e-03 -3.919213970200000063e-02 4.669852052699999950e-02 7.548409920199999901e-02 -6.267739285699999718e-02 7.686843057590000416e-01 4.370720300479999931e-01 -1.303338498680000068e-01 -4.056382966529999967e-01 -1.479358447459999948e-01 3.378373560590000046e-01 -3.873849564460000172e-01 -2.649952938440000016e-01 2.441058218999999849e-03 -2.245604665710000114e-01 2.401497969000000038e-02 -2.205008345549999971e-01 -3.602430322040000021e-01 4.638142101039999798e-01 -1.397937302399999970e-02 -8.005759417219999730e-01 2.628094386859999854e-01 2.437316421250000087e-01 6.416181801939999652e-01 3.261974728359999798e-01 -7.705437117499999711e-02 6.173503090209999655e-01 -3.096712732940000157e-01 -2.744452107409999786e-01 1.880872466609999905e-01 2.122820869429999924e-01 3.670664076130000231e-01 -1.629430087160000096e-01 -5.177766374819999795e-01 5.210774985930000103e-01 -1.887581921179999900e-01 7.039169020090000339e-01 1.172179034940000059e-01 2.922581514099999861e-02 -3.609145160550000231e-01 -2.461397378580000017e-01 -2.305519903240000057e-01 2.754142077669999855e-01 -9.565324333100000409e-02 -1.819159511460000100e-01 -2.344658895550000011e-01 1.605551841689999981e-01 -2.841886487799999972e-01 -1.524465860199999967e-01 3.502000703259999792e-01 4.235230869030000012e-01 -4.457292991749999822e-01 -3.674451037640000250e-01 9.086391064300000653e-02 1.272770895889999976e-01 2.239233547500000046e-02 -3.792022794120000206e-01 5.104858125700000027e-02 1.033547371099999973e-02 8.606817218540000480e-01 2.897554188059999758e-01
1.841207796640000061e-01 -5.470982666500000258e-02 -3.274111744229999954e-01 5.637723674100000165e-02 3.960053911429999851e-01 -5.726303838949999836e-01 9.922629427079999731e-01 -4.009211277479999835e-01 3.228035047899999732e-01 -9.348794369189999953e-01 1.062231480022999941e+00 -4.367319698650000137e-01 -1.517631704949999882e-01 -6.517757971830000496e-01 4.153917210129999815e-01 -1.040484841249999931e-01 2.377447692549999880e-01 -3.483429565419999818e-01 7.446396040780000058e-01 2.173567611849999970e-01 8.049010987599999889e-02 -3.971654544229999972e-01 2.020562044479999875e-01 2.737074204170000247e-01 1.966565007739999871e-01 -7.594211286009999728e-01 4.254810086090000110e-01 -4.395540825070000102e-01 -4.990223510490000014e-01 -3.495718216620000152e-01 -5.653106668230000187e-01 1.294146357500000066e-01 -3.399280818550000083e-01 2.735066396620000062e-01 4.789580931590000090e-01 6.658567716159999872e-01 5.028074103059999578e-01 8.347302968999999184e-03 -1.267639988396999984e+00 3.633297355460000100e-01 6.400527919489999995e-01 8.707769424219999888e-01 -3.675825760999999747e-02 9.634727766030000140e-01 -2.835360441049999958e-01 5.638302584700000120e-02 -5.824198227800000405e-01 9.354153090500000323e-02 -3.777626235199999655e-02 -2.358290804460000112e-01 -8.318741629150000483e-01 -1.287154206702000092e+00 1.934322828610000045e-01 -4.099569448290000251e-01 -8.646886390600000416e-02 -5.964652377429999763e-01 -1.847285482880000052e-01 -3.584566622629999921e-01 -2.670456554349999734e-01 1.454561619879999879e-01 7.227350100930000076e-01 1.604127639350000079e-01 1.669019134829999862e-01 -1.249126841800000075e-02 1.418497064671000008e+00 2.663214650790000082e-01 -3.454553267939999839e-01 -2.826892350169999957e-01 4.626455682780000189e-01 7.205522014499999850e-01 -5.653946462159999964e-01 -2.239625818369999910e-01 1.472743825910000082e-01 1.382944989209999864e-01 1.070044049770000061e-01 -4.306183848299999922e-02 -7.277628099149999752e-01 2.454250864670000087e-01 1.287368825699999886e-01 -8.609759527720000083e-01 4.536353669270000166e-01 -4.118592016629999963e-01 -7.591553807499999695e-02 9.994283056500000151e-02 -2.188886096559999883e-01 8.023711397080000030e-01 1.029156480776999949e+00 1.832257765610000033e-01 8.742419231499999610e-02 1.478241796080000114e-01 -6.054994004400000157e-02 4.446087482800000212e-01 -2.888422540550000250e-01 2.577044521119999931e-01 -2.099284636619999922e-01 1.237696970269999974e-01 3.104073986520000106e-01 -2.152904525650000123e-01 -3.364258282320000126e-01 -4.071514083219999747e-01 6.261100717959999784e-01 2.917212558849999748e-01 -1.060089397940000011e-01 -8.676188460829999949e-01 -3.360538535229999901e-01 2.766160820740000137e-01 -5.721695539329999525e-01 1.368384571609999878e-01 9.010392271500000660e-02 1.071788007830000028e-01 -5.731409829639999565e-01 -4.726861438250000158e-01 2.001873531910000059e-01 -5.435422991120000269e-01 3.077488588560000071e-01 1.256328162999999914e-02 1.578087821370000032e-01 -3.770061787500000178e-02 -1.013648786840000010e-01 6.718192164899999819e-01
1.166706973679999954e-01 -1.015806275209999998e-01 -1.629195483089999896e-01 1.969923811339999997e-01 4.509876575510000096e-01 -6.717260881829999475e-01 1.126544711928999964e+00 -3.300856328760000125e-01 3.653811383350000219e-01 -1.063665563859000018e+00 1.329526241229000094e+00 -5.085824507349999690e-01 -1.889440682899999960e-02 -6.454277091669999855e-01 4.625307043740000124e-01 -1.659323002009999992e-01 1.842377888139999920e-01 -5.542535281039999706e-01 7.088133371929999926e-01 1.621957083900000054e-02 2.345003729310000118e-01 -3.796779811770000235e-01 1.746152125260000132e-01 1.794118280900000029e-01 5.045409323689999948e-01 -9.489225957820000001e-01 1.884522510440000131e-01 -2.855870860799999966e-02 -2.748397799839999989e-01 1.198235552620000033e-01 -8.488082693780000243e-01 1.772609869539999994e-01 -1.299617590430000025e-01 7.699085564569999596e-01 -2.385071219519999952e-01 3.187108941760000147e-01 -5.057947718499999912e-02 -3.218102315899999677e-02 -1.580911649534000096e+00 7.838523796440000080e-01 6.162739170159999835e-01 2.890813551170000051e-01 -4.906405606800000041e-01 1.075896159750999947e+00 9.003568053999999599e-02 -2.565037194900000039e-01 -4.517832852420000100e-01 2.065033081509999868e-01 8.955937781499999362e-02 2.564836212230000023e-01 -3.379454965590000248e-01 -2.259294231850000056e-01 9.289588797799999687e-02 -3.310337008779999923e-01 -1.562068721100000057e-01 -1.776904449189999902e-01 -2.365609772560000046e-01 -6.728172393989999556e-01 7.202826695200000018e-02 -3.301360154949999903e-01 9.362065666209999915e-01 1.066522400499999995e-01 2.082323330410000006e-01 -3.438090295099999888e-02 5.820315343649999917e-01 -6.674405236699999799e-02 -3.576355242040000215e-01 1.044737583480000037e-01 7.325244456949999705e-01 5.584471799969999983e-01 -4.682747108740000219e-01 -2.748528128599999829e-02 2.198709684200000070e-01 7.249305559900000306e-02 1.740022668329999911e-01 1.598460518979999967e-01 -6.917584191819999839e-01 1.667542734959999995e-01 2.884723869290000131e-01 -3.190691046649999918e-01 3.811148610039999940e-01 -8.521583086870000434e-01 -2.462337303350000117e-01 -1.802777676189999956e-01 -2.285380606040000040e-01 6.232586180889999605e-01 1.290267324785999925e+00 -2.630307474770000042e-01 -1.184050164560000035e-01 2.084858232510000131e-01 -3.834456852170000096e-01 2.868820741940000252e-01 1.852796975399999962e-02 -6.776478116799999896e-02 -1.636608097910000059e-01 -1.253289954350000068e-01 4.690956763420000009e-01 -3.583858176879999857e-01 -2.982509894590000266e-01 -2.045948186319999917e-01 7.186278563869999969e-01 1.738069103019999895e-01 -8.623951323799999846e-02 -1.003654318171000037e+00 -4.941342059120000241e-01 2.177054696300000092e-01 -5.597802921769999829e-01 3.662425400830000011e-01 -2.514524771630000100e-01 -5.495965826999999956e-03 -2.959716789419999938e-01 -2.428308535510000088e-01 3.676243937770000136e-01 -6.955453299760000485e-01 2.292448739250000089e-01 6.023010627649999504e-01 2.673846672060000151e-01 -4.548535267900000179e-02 -7.750334986379999735e-01 5.859950116190000280e-01
-5.496383622900000154e-02 -5.168386003999999624e-03 2.716043581199999862e-02 2.956115172309999872e-01 3.687308353350000067e-01 -7.643624662219999921e-01 1.242372213204000042e+00 -2.948551941550000000e-01 3.486788679669999835e-01 -1.108614462340999918e+00 1.473707998215000092e+00 -2.652610182060000099e-01 -6.311549509800000457e-02 -5.979019545229999899e-01 4.050035159879999958e-01 -6.052821224999999777e-02 -1.147835766000000019e-03 -5.878928739040000240e-01 5.392572702619999880e-01 -2.035624292740000063e-01 2.583938995230000146e-01 -1.505904318600000125e-01 1.260787061049999935e-01 8.625034903999999336e-02 5.514528610760000005e-01 -6.313300642670000018e-01 -6.622005369700000033e-02 3.397285434630000212e-01 2.418768348270000090e-01 6.644314394150000469e-01 -7.394837456339999893e-01 -1.758453967889999914e-01 6.645334131600000305e-02 8.891121937920000162e-01 -1.059217710258000045e+00 1.361206835980000029e-01 -1.625493666080000121e-01 8.683458205959999621e-01 -4.826778120369999980e-01 7.133465032970000008e-01 1.404895861700000137e-01 -9.438083605970000178e-01 -6.145610687970000097e-01 -2.611783151670000191e-01 6.344385217900000429e-01 -5.428036616379999790e-01 1.531389123140000086e-01 -3.294702997339999939e-01 3.241710972390000056e-01 6.717100828319999550e-01 2.931761863339999996e-01 1.141477772882000030e+00 -8.842500748999999882e-02 -1.408615246659999931e-01 -1.695602801309999963e-01 1.534980790480000024e-01 -1.826135358750000104e-01 -7.229215843180000212e-01 3.325761914090000215e-01 -7.384155957350000410e-01 1.565370891710000101e-01 -1.028706081249999987e-01 2.920098584579999823e-01 -5.432302418999999591e-03 -1.037499373918000067e+00 -4.449680839330000248e-01 -1.282156417070000054e-01 4.892086474930000262e-01 2.192619396540000098e-01 3.881122468300000211e-02 -1.885115032200000013e-02 1.861716419040000126e-01 1.896795282229999935e-01 -1.175209962040000000e-01 1.991835243500000019e-01 2.611234662299999898e-01 -2.945933022480000107e-01 3.315029212910000078e-01 5.523959644200000102e-02 4.837309484050000274e-01 2.215257263859999881e-01 -7.279833220120000004e-01 7.504253713800000669e-02 -3.901481633650000225e-01 -2.322030979489999869e-01 6.429402451400000051e-02 -1.547043984639999981e-01 -6.925180771250000200e-01 -3.708118614939999724e-01 2.879901814149999906e-01 -4.760279006340000230e-01 -5.400979043160000215e-01 2.622589256130000157e-01 -2.811578070369999960e-01 -1.705032648010000040e-01 2.327525858839999962e-01 4.150841160020000142e-01 -4.187684398879999992e-01 -2.936302132909999751e-01 1.845760154409999965e-01 5.397223309199999930e-02 -3.835314338799999945e-02 -6.604756786000000324e-02 -4.856643300669999941e-01 -6.382495726960000226e-01 9.547255155700000440e-02 -2.209058133540000024e-01 3.765625290010000126e-01 -5.833066024480000333e-01 1.676222901090000106e-01 3.595056877059999989e-01 2.021127461989999929e-01 4.450332188430000113e-01 2.211811986380000095e-01 4.859834073299999779e-02 1.013510216188000079e+00 3.624412484699999770e-01 -1.011801830329999985e-01 -2.258478242039999861e-01 -1.081809374399999961e-02
-1.644539939309999921e-01 1.226648950839999974e-01 5.384222520999999706e-02 4.480338156129999860e-01 2.196088974969999941e-01 -7.910904017590000281e-01 1.346172113526000080e+00 -1.605682474660000136e-01 3.339254939269999944e-01 -1.170272390519000005e+00 1.444809927806999905e+00 6.345325682400000666e-02 -1.927425967689999908e-01 -6.097427570350000270e-01 3.710493584060000072e-01 1.668172419500000073e-02 -2.055423134509999916e-01 -4.071051250569999724e-01 3.677399021269999735e-01 -2.301330244370000111e-01 1.382227083030000137e-01 1.186964400019999977e-01 -1.298372395200000050e-02 1.244612136219999943e-01 4.651629778840000173e-01 -3.542038017500000191e-02 -2.982334657219999907e-01 5.622343558140000530e-01 1.925517464519999888e-01 1.012841348070000036e+00 -2.111698914240000002e-01 -6.463213204269999679e-01 4.729827393020000215e-01 4.170222712239999852e-01 -1.135604591836000044e+00 -2.275011625920000113e-01 -3.101891115220000161e-01 1.400431690810999941e+00 3.083053882549999791e-01 6.575636006700000258e-02 -3.584252971870000026e-01 -1.546611722947000001e+00 -2.577006812509999856e-01 -1.279790425707000079e+00 1.741890406030000005e-01 -4.134104750020000107e-01 6.316160190209999525e-01 -7.737676451280000034e-01 5.879744225940000124e-01 8.580312927630000530e-01 2.273236730440000020e-01 5.567000074629999684e-01 -2.476290825199999879e-01 -3.737237033000000153e-02 -1.040959875600000056e-01 2.593709393999999932e-02 -1.228806190560000067e-01 -4.104226330649999865e-01 4.088148234890000010e-01 -1.601122427480000110e-01 -6.309604817309999447e-01 -2.047872083289999923e-01 3.236867864970000008e-01 1.141051016530000017e-01 -1.473267478147000098e+00 -5.831798824030000050e-01 2.363645407759999983e-01 5.814442475490000373e-01 -3.662144082089999753e-01 -4.993339844410000228e-01 4.229994155890000052e-01 2.667999342039999999e-01 7.228749308899999615e-02 -1.854955535899999869e-02 8.742265979900000483e-02 2.602661920730000022e-01 1.214828326479999998e-01 2.026723107329999884e-01 -3.740454396610000121e-01 9.773807203259999854e-01 1.523065585800000010e-01 -1.256685826429999875e-01 2.261709717700000066e-02 -3.662383692030000137e-01 -2.603357340560000233e-01 -5.584093258519999825e-01 -8.201445734650000263e-01 7.839712604699999865e-02 -5.180457175620000188e-01 2.200420606240000021e-01 -3.742369599879999953e-01 -6.163135584450000204e-01 2.835084577109999726e-01 -2.643406966529999735e-01 -1.500236044219999954e-01 9.285822304499999347e-02 -1.072464767800000024e-01 -3.098972689210000020e-01 -1.916931446800000105e-01 5.488161600369999560e-01 -4.105003260299999734e-01 -1.407050621179999905e-01 -7.095977375799999987e-02 3.218314334929999743e-01 2.618862602670000150e-01 8.997507684000000810e-03 2.578620278629999985e-01 1.228172582089999965e-01 -7.387886703020000168e-01 -4.561482361000000069e-02 9.053837460639999613e-01 6.362671636640000461e-01 3.137636817680000134e-01 9.269848516119999493e-01 -2.656912882799999931e-02 8.087967017449999574e-01 3.924622099660000085e-01 -2.007319856449999995e-01 9.492548584799999356e-02 -6.865775674609999601e-01