2.803598955606690701e+00 2.550268073745932895e+00 -6.278104938966853066e-01 2.550268073745932895e+00 -6.459588132470005739e+00 1.465270070576668360e+00 -6.278104938966853066e-01 1.465270070576668360e+00 -7.876102260862658078e+00
3.894762328752744196e+00 2.411305861579380760e+00 -8.437644252311833348e-01 2.411305861579380760e+00 -3.867563273068726493e-01 1.329816276222288485e+00 -8.437644252311833348e-01 1.329816276222288485e+00 -4.532425274237606772e+00
5.171263838566805049e+00 2.237217939591556792e+00 -1.052418104742853355e+00 2.237217939591556792e+00 2.861880469037625385e+00 1.520483972053169541e+00 -1.052418104742853355e+00 1.520483972053169541e+00 -3.788213910192846701e+00
4.690129566815651074e+00 2.060633720456968909e+00 -1.237702394976736509e+00 2.060633720456968909e+00 7.198186632462898471e-01 1.487562898016867585e+00 -1.237702394976736509e+00 1.487562898016867585e+00 -6.219558329293024990e+00
5.201788033096457653e+00 1.781726557573006575e+00 -1.398427092826106222e+00 1.781726557573006575e+00 -2.058649946530556996e+00 1.241230436381753899e+00 -1.398427092826106222e+00 1.241230436381753899e+00 -7.550525765994184901e+00
7.016519168478804858e+00 1.549410163198661428e+00 -1.352892655731228633e+00 1.549410163198661428e+00 -1.634932504173662871e+00 1.184780408446808320e+00 -1.352892655731228633e+00 1.184780408446808320e+00 -6.287485361425998676e+00
6.701067337436539262e+00 1.745124426802211248e+00 -1.147523002220189881e+00 1.745124426802211248e+00 -9.396634283662034237e-01 1.366053314405546004e+00 -1.147523002220189881e+00 1.366053314405546004e+00 -5.047015036973127700e+00
4.392031330666097411e+00 2.291296219205732232e+00 -1.024275543419286949e+00 2.291296219205732232e+00 -1.913470933655596617e+00 1.922703241322382794e+00 -1.024275543419286949e+00 1.922703241322382794e+00 -4.554202824567155972e+00
2.200461470711630785e+00 2.650334491208779841e+00 -1.028728583405608354e+00 2.650334491208779841e+00 -3.692178762826932914e+00 2.777427428833093348e+00 -1.028728583405608354e+00 2.777427428833093348e+00 -2.118709058396690548e+00
2.077883096156620368e+00 2.619115720014163706e+00 -7.447284043230877337e-01 2.619115720014163706e+00 -5.990369405739614628e+00 3.311681098644434051e+00 -7.447284043230877337e-01 3.311681098644434051e+00 2.507315484691193808e-01
3.021047679827601140e+00 2.653892537595679890e+00 -5.050967008097464461e-01 2.653892537595679890e+00 -7.776937360529933230e+00 3.089301993843058369e+00 -5.050967008097464461e-01 3.089301993843058369e+00 -1.798811602577236490e+00
6.017316014612863029e+00 2.855495744376180589e+00 -6.898846200430945874e-01 2.855495744376180589e+00 -7.591837030021803656e+00 2.742866213505164907e+00 -6.898846200430945874e-01 2.742866213505164907e+00 -3.973568942486371824e+00
8.622688115220109140e+00 3.164761961692760472e+00 -1.198159403527264022e+00 3.164761961692760472e+00 -4.943436696744971215e+00 2.722689396992785227e+00 -1.198159403527264022e+00 2.722689396992785227e+00 -4.536190046162421829e+00
5.390470011030631170e+00 3.390109682403817715e+00 -1.384709996880672422e+00 3.390109682403817715e+00 -3.809090220895134493e+00 2.525048304237696772e+00 -1.384709996880672422e+00 2.525048304237696772e+00 -5.714525658748569548e+00
5.407307769867861214e-02 3.390804537192019907e+00 -1.346477119315028004e+00 3.390804537192019907e+00 -4.850316569935332112e+00 2.139108107952509830e+00 -1.346477119315028004e+00 2.139108107952509830e+00 -7.909777086818957414e+00
-1.600813477546361385e+00 3.001435949496255251e+00 -1.338633202808521272e+00 3.001435949496255251e+00 -4.817708090323470138e+00 2.410705904765233498e+00 -1.338633202808521272e+00 2.410705904765233498e+00 -7.236212389647539212e+00
1.907863295995841924e-01 2.658625096771551011e+00 -7.308999573204625344e-01 2.658625096771551011e+00 -1.799512049344531572e+00 2.997950354996827826e+00 -7.308999573204625344e-01 2.997950354996827826e+00 -2.872422276612141001e+00
2.410471133071899086e+00 2.668561729273541960e+00 3.514542079023122989e-01 2.668561729273541960e+00 9.387642616666375117e-01 3.741978389487020440e+00 3.514542079023122989e-01 3.741978389487020440e+00 -1.486683155892760677e-01
8.095443976237537420e-01 2.714919380919326830e+00 9.771466559044401645e-01 2.714919380919326830e+00 3.687246757076573789e-01 3.773619093487586618e+00 9.771466559044401645e-01 3.773619093487586618e+00 -4.431921302792561912e-01
-1.976656833981462746e+00 2.387684116154003000e+00 5.967018633590052135e-01 2.387684116154003000e+00 2.770142776389966421e+00 3.108396739043151946e+00 5.967018633590052135e-01 3.108396739043151946e+00 -1.195558364044577049e+00
2.713150745318098522e+00 2.788331886770897050e+00 -9.751220316836217705e-01 2.788331886770897050e+00 5.032759654125277038e+00 3.433605498573243597e+00 -9.751220316836217705e-01 3.433605498573243597e+00 -2.662975067660500628e+00
3.296266882442661306e+00 3.463635845639387423e+00 -2.203597264820583046e+00 3.463635845639387423e+00 1.181915309271442727e+00 3.385887495717285312e+00 -2.203597264820583046e+00 3.385887495717285312e+00 -5.549231288015488595e+00
5.833545204192966516e+00 2.328501554053646672e+00 -2.417149195223185387e+00 2.328501554053646672e+00 -2.477351075476903197e-01 1.970406612749455721e+00 -2.417149195223185387e+00 1.970406612749455721e+00 -1.732215314692233221e+00
5.290931825094756569e+00 1.432274597285470907e+00 -3.166974129274083616e+00 1.432274597285470907e+00 -2.897161677903940635e+00 1.070879175034249231e+00 -3.166974129274083616e+00 1.070879175034249231e+00 8.017007067486865424e-01
1.777707455093092137e-01 1.417209301554505974e+00 -3.719206290724368813e+00 1.417209301554505974e+00 -2.495534763303445036e+00 1.460473974913267803e+00 -3.719206290724368813e+00 1.460473974913267803e+00 1.358560348592460443e+00
-3.424413424640412096e+00 1.745365383496213729e+00 -3.138524331940601986e+00 1.745365383496213729e+00 -3.314538515640403471e+00 1.259746595026295157e+00 -3.138524331940601986e+00 1.259746595026295157e+00 -4.021611458563927322e+00
-4.463485036196624733e+00 2.469926739161850016e+00 -2.473482079070158601e+00 2.469926739161850016e+00 -5.510819749921039623e+00 8.130722098832817712e-01 -2.473482079070158601e+00 8.130722098832817712e-01 -1.003283581755538556e+01
-9.534436197432802018e+00 3.244606035848266234e+00 -2.548626674865060782e+00 3.244606035848266234e+00 -7.017215874450036139e+00 1.732959700408086778e+00 -2.548626674865060782e+00 1.732959700408086778e+00 -1.157345629161821066e+01
-1.197350649321401939e+01 3.252627593238352599e+00 -2.948038341269873186e+00 3.252627593238352599e+00 -4.977806263945585563e+00 3.349634164566479999e+00 -2.948038341269873186e+00 3.349634164566479999e+00 -1.302805350357242453e+01
-1.026320706086344714e+01 3.411532178962545014e+00 -3.555961520495370287e+00 3.411532178962545014e+00 -8.089466566601217351e-03 4.723631286043817212e+00 -3.555961520495370287e+00 4.723631286043817212e+00 -1.325345659353588523e+01
-7.509889676011382242e+00 4.324206424582138553e+00 -3.990608857013575150e+00 4.324206424582138553e+00 -5.215508877481878081e+00 5.558078243336155744e+00 -3.990608857013575150e+00 5.558078243336155744e+00 -1.342998299633681825e+01
-2.169477535338309782e+00 4.638801540100604193e+00 -3.323773848984235890e+00 4.638801540100604193e+00 -1.164643259046250812e+01 4.429255723587220750e+00 -3.323773848984235890e+00 4.429255723587220750e+00 -1.230685005598576787e+01
3.051477773637590207e+00 3.928608843067668221e+00 -2.202850199746227755e+00 3.928608843067668221e+00 -1.424334089064909392e+01 3.330630843962220755e+00 -2.202850199746227755e+00 3.330630843962220755e+00 -1.001948876112321862e+01
1.343350365885107811e+00 3.616162887405578896e+00 -2.500041107612073876e+00 3.616162887405578896e+00 -1.175114055553271974e+01 3.428758191769078589e+00 -2.500041107612073876e+00 3.428758191769078589e+00 -1.267485051956479225e+01
-7.953566815040397087e-01 3.694274053199518182e+00 -2.768412724961429205e+00 3.694274053199518182e+00 -8.007541193470441243e+00 3.340372417221817880e+00 -2.768412724961429205e+00 3.340372417221817880e+00 -1.138681541243203021e+01
1.897737358370681582e+00 3.920955424260123667e+00 -2.656527579956662333e+00 3.920955424260123667e+00 -1.180360145729604238e+00 3.536113428631945776e+00 -2.656527579956662333e+00 3.536113428631945776e+00 -6.697184985974635296e+00
6.409963891924844503e+00 3.929123990430827273e+00 -2.971282696603820828e+00 3.929123990430827273e+00 8.065630159354727269e+00 4.226794879920299230e+00 -2.971282696603820828e+00 4.226794879920299230e+00 5.458828350694228115e-01
1.068645673352086511e+01 4.058632337337751750e+00 -3.369799131395394109e+00 4.058632337337751750e+00 1.138980841440061020e+01 4.860229673443791754e+00 -3.369799131395394109e+00 4.860229673443791754e+00 4.737238424534993442e+00
1.286981484931764541e+01 3.702938021101302102e+00 -3.366326402005660690e+00 3.702938021101302102e+00 1.138565840076946678e+01 4.416016509603132079e+00 -3.366326402005660690e+00 4.416016509603132079e+00 5.512640107380907040e+00
1.317941916584483941e+01 2.726134106166295368e+00 -2.887704238356842090e+00 2.726134106166295368e+00 7.942284400061741856e+00 3.818803039458688708e+00 -2.887704238356842090e+00 3.818803039458688708e+00 6.737448928057525599e+00
1.300042377297706686e+01 1.806740660695298262e+00 -2.153836256604488852e+00 1.806740660695298262e+00 4.363723145613205290e+00 3.882513981546304560e+00 -2.153836256604488852e+00 3.882513981546304560e+00 7.329233351689123488e+00
1.344028757317036238e+01 2.024644067226686328e+00 -1.920448589849842680e+00 2.024644067226686328e+00 1.047631262933197860e+00 3.734228523022454560e+00 -1.920448589849842680e+00 3.734228523022454560e+00 7.338063823624527693e+00
1.388899476834837188e+01 2.899432346849155184e+00 -1.718873872803315273e+00 2.899432346849155184e+00 -2.230786178885407089e+00 3.288106714530335317e+00 -1.718873872803315273e+00 3.288106714530335317e+00 1.235936264105819138e+00
8.236019350603676514e+00 3.324350840482023450e+00 -1.232584174967789714e+00 3.324350840482023450e+00 -6.224116689625776466e+00 3.064919323956445396e+00 -1.232584174967789714e+00 3.064919323956445396e+00 -6.701111218957301219e+00
1.594533382389041520e+00 3.573087078090273483e+00 -1.008478043596387597e+00 3.573087078090273483e+00 -8.246568334765113306e+00 2.939966726834339461e+00 -1.008478043596387597e+00 2.939966726834339461e+00 -1.248326423486386361e+01
-3.611726225983204142e+00 3.541627345772412561e+00 -1.004994245283344689e+00 3.541627345772412561e+00 -8.734112820095598195e+00 3.048268404802498388e+00 -1.004994245283344689e+00 3.048268404802498388e+00 -1.642599352682989533e+01
-4.710582384279137003e+00 3.367083682765490860e+00 -9.775908008828992912e-01 3.367083682765490860e+00 -1.037920595715221950e+01 3.289694017791478409e+00 -9.775908008828992912e-01 3.289694017791478409e+00 -1.858596474258700582e+01
-2.748101389620290380e+00 3.792240169156495533e+00 -8.811067683014295326e-01 3.792240169156495533e+00 -1.046381281291118626e+01 3.216948075565226883e+00 -8.811067683014295326e-01 3.216948075565226883e+00 -1.892100415064262720e+01
9.202286167531428251e-01 4.624962740928173055e+00 -8.056323404955973988e-01 4.624962740928173055e+00 -9.075786563373453575e+00 3.078260955439468649e+00 -8.056323404955973988e-01 3.078260955439468649e+00 -1.720692990664652910e+01
2.455670563352038815e+00 4.564280343160955766e+00 -6.318805493603503187e-01 4.564280343160955766e+00 -5.187402125413540510e+00 2.898444608225324792e+00 -6.318805493603503187e-01 2.898444608225324792e+00 -1.379548659717330494e+01
1.042664207460590076e+00 3.852876216340887172e+00 -4.342175950487480174e-01 3.852876216340887172e+00 -3.062499270219281033e+00 2.643061820022736708e+00 -4.342175950487480174e-01 2.643061820022736708e+00 -1.037957156552924687e+01
1.778094778127616182e+00 3.215714995568741408e+00 -5.415893755533126575e-01 3.215714995568741408e+00 -2.468037474134924913e+00 2.542702767502339700e+00 -5.415893755533126575e-01 2.542702767502339700e+00 -4.741308816289315331e+00
5.508574615383800221e+00 2.544179546962753502e+00 -1.072486617651901009e+00 2.544179546962753502e+00 -5.494442061705652469e-02 2.176920900977560080e+00 -1.072486617651901009e+00 2.176920900977560080e+00 2.121873934551729679e+00
9.702791517459420589e+00 2.081656366986333495e+00 -1.867413518746538825e+00 2.081656366986333495e+00 3.687920327656941222e+00 1.982311525180248779e+00 -1.867413518746538825e+00 1.982311525180248779e+00 9.199073638365998562e+00
1.150368380222695741e+01 2.126564592295224987e+00 -1.992881818722524123e+00 2.126564592295224987e+00 6.489851575424458119e+00 2.103205930267918689e+00 -1.992881818722524123e+00 2.103205930267918689e+00 1.289592835227659506e+01
1.161289294874141120e+01 2.611949258757530590e+00 -1.722139881750454515e+00 2.611949258757530590e+00 5.957579471631720303e+00 1.796068674687195221e+00 -1.722139881750454515e+00 1.796068674687195221e+00 1.251942155329751927e+01
9.646854946483339077e+00 2.972170808311875856e+00 -1.487362478782498165e+00 2.972170808311875856e+00 1.389672882792054365e+00 1.629682387321148118e+00 -1.487362478782498165e+00 1.629682387321148118e+00 7.616399035644750626e+00
5.850160796877754699e+00 3.123633887573508794e+00 -1.167996085083363056e+00 3.123633887573508794e+00 -3.994219750043857431e+00 1.826141733522739896e+00 -1.167996085083363056e+00 1.826141733522739896e+00 1.114673500397437567e-01
3.044579258571098013e+00 3.135602919895106311e+00 -6.910510462747188054e-01 3.135602919895106311e+00 -6.329556678457809227e+00 1.976243902052195578e+00 -6.910510462747188054e-01 1.976243902052195578e+00 -4.806409201129337561e+00
4.806682328185842845e-01 3.063148397026487668e+00 -6.898703804311900889e-01 3.063148397026487668e+00 -6.463351159388591505e+00 1.854774379645425242e+00 -6.898703804311900889e-01 1.854774379645425242e+00 -7.743499252937064092e+00
-1.030012570060575339e+00 3.553936517467514378e+00 -1.272636948320673644e+00 3.553936517467514378e+00 -5.987953047035788678e+00 1.548052973296636159e+00 -1.272636948320673644e+00 1.548052973296636159e+00 -1.087725789544081856e+01
-2.024880620376076745e+00 4.260637194423018137e+00 -1.581784524414855619e+00 4.260637194423018137e+00 -6.212251761171125430e+00 1.646585568421948143e+00 -1.581784524414855619e+00 1.646585568421948143e+00 -1.238639866389650734e+01
-1.631102725482669991e+00 3.989911016053706128e+00 -1.558911855539066194e+00 3.989911016053706128e+00 -3.583192647070170267e+00 2.236550401571318680e+00 -1.558911855539066194e+00 2.236550401571318680e+00 -1.047660260250018283e+01
-1.387010789210917583e+00 3.438246593560800424e+00 -1.482502946348799977e+00 3.438246593560800424e+00 -1.096605451916261798e+00 2.317235389422438008e+00 -1.482502946348799977e+00 2.317235389422438008e+00 -7.887439386172326650e+00
-4.708035419188032478e+00 3.151819956433765668e+00 -1.740236166892905167e+00 3.151819956433765668e+00 -2.761953688786349392e-01 2.107090321202183869e+00 -1.740236166892905167e+00 2.107090321202183869e+00 -5.920851975429509473e+00
-5.221091130485596921e+00 3.278299036290758917e+00 -1.937853784650475308e+00 3.278299036290758917e+00 -2.728249323398679760e+00 2.373054292994836612e+00 -1.937853784650475308e+00 2.373054292994836612e+00 -5.620816602301403897e+00
-2.963369582370285915e+00 3.474272326066750072e+00 -1.942344948136175198e+00 3.474272326066750072e+00 -6.129335251424184783e+00 2.627431203854705632e+00 -1.942344948136175198e+00 2.627431203854705632e+00 5.632968290280498946e-01
6.764675130905581923e-01 3.585661775028842868e+00 -2.138083624871650823e+00 3.585661775028842868e+00 -5.567338740884462567e+00 2.467979057870868687e+00 -2.138083624871650823e+00 2.467979057870868687e+00 8.281895115805040675e+00
2.604603059827460321e+00 3.126095790617846593e+00 -2.230475520090326569e+00 3.126095790617846593e+00 -7.298864027340613347e+00 2.467199554046054732e+00 -2.230475520090326569e+00 2.467199554046054732e+00 2.732172639582063578e+00
3.530123524646442412e+00 3.153423794310945993e+00 -1.946757478463472912e+00 3.153423794310945993e+00 -8.106705145936757617e+00 3.412213651110194590e+00 -1.946757478463472912e+00 3.412213651110194590e+00 -4.520027071603325730e+00
1.090677504245210372e+01 3.604398095754051567e+00 -7.740181766503648753e-01 3.604398095754051567e+00 -6.034415411438192933e+00 4.206614539760779259e+00 -7.740181766503648753e-01 4.206614539760779259e+00 -5.364144404283734069e+00
1.222535670190946355e+01 2.930578324674588675e+00 -2.984251701096065079e-01 2.930578324674588675e+00 -2.741391579093796160e+00 4.077444399460009805e+00 -2.984251701096065079e-01 4.077444399460009805e+00 -1.721192624682859496e+00
7.222002261373499543e+00 2.135475844356445219e+00 -9.245070211631444268e-01 2.135475844356445219e+00 -1.150628525638206778e-01 3.248366816312551197e+00 -9.245070211631444268e-01 3.248366816312551197e+00 -3.001262690308420300e+00
5.807841557761046047e+00 2.167141409406639241e+00 -1.940150763585112959e+00 2.167141409406639241e+00 5.828367711425015418e-01 2.668586055189078099e+00 -1.940150763585112959e+00 2.668586055189078099e+00 -4.312489023245284159e+00
-1.075436522500262893e+00 2.373532194138710416e+00 -1.766564165525991381e+00 2.373532194138710416e+00 -7.702043630539314734e-01 2.615333703872039894e+00 -1.766564165525991381e+00 2.615333703872039894e+00 -1.321235134176869552e+00
-4.436035636443911301e+00 2.884676982566483527e+00 -2.895474809244604764e-01 2.884676982566483527e+00 -9.083861688905162657e-01 3.223400529872614051e+00 -2.895474809244604764e-01 3.223400529872614051e+00 1.322426534406565990e+00
-3.875120594609660074e+00 3.723578048107015093e+00 1.693745061371093041e-01 3.723578048107015093e+00 1.158336643881414441e+00 3.547412699659017399e+00 1.693745061371093041e-01 3.547412699659017399e+00 -3.720158539925265906e+00
1.536708096857116734e+00 3.886947070411650440e+00 -2.690611563478100265e-01 3.886947070411650440e+00 2.099633382736544984e+00 3.822536784352671191e+00 -2.690611563478100265e-01 3.822536784352671191e+00 -1.094837272604825884e+01
1.004555475366205641e+01 3.876251585459298266e+00 -6.624125170628585302e-01 3.876251585459298266e+00 2.539559223862737802e+00 4.787436233907517824e+00 -6.624125170628585302e-01 4.787436233907517824e+00 -1.132984196107471320e+01
6.694032134466580075e+00 4.382552288262871798e+00 -1.181865134686024055e+00 4.382552288262871798e+00 -4.144376630008605567e+00 4.989605413953568380e+00 -1.181865134686024055e+00 4.989605413953568380e+00 -1.070706148852307393e+01
-2.677819466803425197e+00 4.845897900334167119e+00 -1.974263093019381854e+00 4.845897900334167119e+00 -1.379568477559414141e+01 4.235643300581361181e+00 -1.974263093019381854e+00 4.235643300581361181e+00 -1.125111048173681283e+01
-5.868866262812327150e+00 4.004750626322223894e+00 -1.979548547135899117e+00 4.004750626322223894e+00 -1.536589035971529960e+01 3.678295302000305078e+00 -1.979548547135899117e+00 3.678295302000305078e+00 -6.846109249311803424e+00
-6.543478951454121173e+00 2.482519742639691884e+00 -1.068012013291785633e+00 2.482519742639691884e+00 -8.973688346324824039e+00 3.490006116658894264e+00 -1.068012013291785633e+00 3.490006116658894264e+00 -4.368345298255140730e-01
-4.131008885599110059e+00 2.138276758486181706e+00 1.220910606575760851e-02 2.138276758486181706e+00 -2.830762561185410586e+00 2.793780360137080532e+00 1.220910606575760851e-02 2.793780360137080532e+00 5.829950970311225333e+00
-4.176983016503350576e+00 2.047169549147699996e+00 -1.749326755912341547e-01 2.047169549147699996e+00 -4.165165952164606722e+00 2.639665376485876180e+00 -1.749326755912341547e-01 2.639665376485876180e+00 5.207021979386597943e-01
-8.135674291182713347e+00 2.157572808870825032e+00 -6.081252828999618165e-01 2.157572808870825032e+00 -9.201808662733412802e+00 2.831089396380357393e+00 -6.081252828999618165e-01 2.831089396380357393e+00 -4.296259277624679740e+00
-1.052129589080366578e+01 2.252809389790483507e+00 -1.034872181178502881e+00 2.252809389790483507e+00 -1.222229251727581456e+01 3.173292326291268672e+00 -1.034872181178502881e+00 3.173292326291268672e+00 -6.299653516717824253e+00
-6.177703526054788341e+00 1.426647524708162029e+00 -1.132243057672891906e+00 1.426647524708162029e+00 -8.478033892242399006e+00 3.146605321316941151e+00 -1.132243057672891906e+00 3.146605321316941151e+00 -5.884260308268953743e+00
2.597193147160560045e+00 9.009640044127315006e-01 -1.066922007694231622e+00 9.009640044127315006e-01 -2.786758595282101680e+00 2.715601146939257582e+00 -1.066922007694231622e+00 2.715601146939257582e+00 -1.773625164695143086e+00
5.098103398235807049e+00 1.082953482708884918e+00 -1.396248948186391114e+00 1.082953482708884918e+00 3.484277414987003940e+00 2.488195181370035591e+00 -1.396248948186391114e+00 2.488195181370035591e+00 -2.957409119237259798e-01
1.472736490022020783e+00 1.249705979261169109e+00 -1.564735758704371094e+00 1.249705979261169109e+00 2.384616272684518812e+00 2.120295332856864334e+00 -1.564735758704371094e+00 2.120295332856864334e+00 -2.628546929911777852e+00
2.147157660724449801e+00 1.423612663451432336e+00 -1.543863928811732622e+00 1.423612663451432336e+00 -1.101897853024281559e+00 1.754227822438285456e+00 -1.543863928811732622e+00 1.754227822438285456e+00 -3.217777639542047652e+00
5.741733512351661517e+00 2.824255053927607229e+00 -1.700917188448192618e+00 2.824255053927607229e+00 -3.375100262822050556e-01 2.290982199780070339e+00 -1.700917188448192618e+00 2.290982199780070339e+00 1.013244816441663670e-01
8.603005563649269050e+00 4.660923542597577018e+00 -2.046573750162630212e+00 4.660923542597577018e+00 2.167443446258955575e+00 2.775019140588348865e+00 -2.046573750162630212e+00 2.775019140588348865e+00 3.003596053323775994e+00
9.748953904323187203e+00 5.024754965934445039e+00 -2.103687766514374946e+00 5.024754965934445039e+00 4.658232027081005810e+00 3.078927480336374867e+00 -2.103687766514374946e+00 3.078927480336374867e+00 3.433728725024666861e+00
7.471724598929863070e+00 4.546006377904515006e+00 -1.664841031339777011e+00 4.546006377904515006e+00 3.417493447275039120e+00 2.745558641231061525e+00 -1.664841031339777011e+00 2.745558641231061525e+00 -2.521466073215876125e-01
5.777118917095744877e+00 3.894808683044660214e+00 -1.174288123651670235e+00 3.894808683044660214e+00 1.001572970761668957e+00 2.356396294370481037e+00 -1.174288123651670235e+00 2.356396294370481037e+00 -1.488597634652749635e+00
6.394327227258269630e+00 3.274991474629084465e+00 -1.291258112275871062e+00 3.274991474629084465e+00 -8.841745409692074176e-02 2.587782675135975818e+00 -1.291258112275871062e+00 2.587782675135975818e+00 -3.124494233027550916e+00
6.231010345562673969e+00 3.249849956408410456e+00 -1.841950318491281324e+00 3.249849956408410456e+00 -1.216195415552462356e+00 2.961097956922204233e+00 -1.841950318491281324e+00 2.961097956922204233e+00 -3.680787017910529091e+00
3.385421901250877497e+00 4.184750716961255002e+00 -2.593618195021286432e+00 4.184750716961255002e+00 -3.271712664192882425e+00 3.393657740573727377e+00 -2.593618195021286432e+00 3.393657740573727377e+00 -4.424866999673026768e+00
2.059422952268729290e+00 5.031533164281417392e+00 -3.015837205267750232e+00 5.031533164281417392e+00 -4.261957973950108780e+00 3.548717745148049829e+00 -3.015837205267750232e+00 3.548717745148049829e+00 -6.925259196531758477e+00
7.935281175275066268e-01 4.912215845766390920e+00 -2.798750370847789437e+00 4.912215845766390920e+00 -5.829708394158065410e+00 3.249665674817877381e+00 -2.798750370847789437e+00 3.249665674817877381e+00 -8.421475660740663116e+00
-2.326482503956459613e+00 4.138463358477022958e+00 -2.005543053506529283e+00 4.138463358477022958e+00 -5.166776800164707417e+00 2.854140431356264607e+00 -2.005543053506529283e+00 2.854140431356264607e+00 -8.034288162029927349e+00
-3.678455497942144881e+00 3.166759836171538112e+00 -1.043871076430208156e+00 3.166759836171538112e+00 -3.017329833440943965e+00 2.297309642701749866e+00 -1.043871076430208156e+00 2.297309642701749866e+00 -5.409101730593969926e+00
-4.984147478468913484e+00 2.643112757585955208e+00 -5.401687945523364620e-01 2.643112757585955208e+00 -3.014197424225835586e+00 1.822301135468522348e+00 -5.401687945523364620e-01 1.822301135468522348e+00 -4.250661834042854359e+00
-5.515336300651710211e+00 2.689989658843431553e+00 -4.204036258788086955e-01 2.689989658843431553e+00 -2.873236275781943405e+00 1.575633632136596241e+00 -4.204036258788086955e-01 1.575633632136596241e+00 -6.290978313653483589e+00
-2.803266637561005137e+00 2.821834476918585910e+00 -5.705296983049129578e-01 2.821834476918585910e+00 -2.050118559736656909e+00 1.260119574149122235e+00 -5.705296983049129578e-01 1.260119574149122235e+00 -5.953039774470699541e+00
1.092083323406391804e+00 3.114363303398935745e+00 -8.526673875782523337e-01 3.114363303398935745e+00 2.824851260104884187e-01 1.197557813663890913e+00 -8.526673875782523337e-01 1.197557813663890913e+00 -1.887252229318186814e+00
5.983317667603033740e+00 3.219966796066780379e+00 -1.087591556339298604e+00 3.219966796066780379e+00 7.697239024458351064e-01 8.347662058992244560e-01 -1.087591556339298604e+00 8.347662058992244560e-01 7.313991534613384360e-01
4.171296898051839896e+00 2.970693413490006041e+00 -1.300246776984746999e+00 2.970693413490006041e+00 -5.788964540490751931e-01 4.963460557385089844e-01 -1.300246776984746999e+00 4.963460557385089844e-01 6.130448161292628706e-01
5.374247964578859893e-01 2.549435860644948093e+00 -1.730692296133029107e+00 2.549435860644948093e+00 4.078218264840553081e-02 1.313942297315805252e+00 -1.730692296133029107e+00 1.313942297315805252e+00 2.774592852370819096e-01
1.167864442731125080e-01 2.288558150190945550e+00 -2.028203946756775622e+00 2.288558150190945550e+00 1.154697650502964690e+00 2.362697655562479682e+00 -2.028203946756775622e+00 2.362697655562479682e+00 -1.247730516438216863e+00
1.490112130347109654e+00 2.543933585849485368e+00 -2.270595977488123030e+00 2.543933585849485368e+00 1.630933075286623124e+00 3.020727244698946823e+00 -2.270595977488123030e+00 3.020727244698946823e+00 -2.519195007731724889e+00
5.346755592197942164e+00 3.285868048759202686e+00 -2.097518613130121778e+00 3.285868048759202686e+00 3.330466257790508644e-01 2.867698606409347484e+00 -2.097518613130121778e+00 2.867698606409347484e+00 -3.084988885569674544e+00
7.033242180828366941e+00 3.287410171976121287e+00 -1.689895961146807402e+00 3.287410171976121287e+00 -6.354398399464515901e-01 2.301794351447832288e+00 -1.689895961146807402e+00 2.301794351447832288e+00 -4.425641765181166143e+00
4.644839216509828006e+00 2.860806229650985966e+00 -1.252263439655182387e+00 2.860806229650985966e+00 -4.283054678263444437e+00 1.425717519485821150e+00 -1.252263439655182387e+00 1.425717519485821150e+00 -4.196931874950807995e+00
4.813785849209316403e+00 3.134348160047767173e+00 -8.535219516848331356e-01 3.134348160047767173e+00 -5.858942961264452798e+00 5.548468001417433682e-01 -8.535219516848331356e-01 5.548468001417433682e-01 -3.541642684605676994e+00
4.462711047132404296e+00 3.755608522621851186e+00 -5.174122421433609009e-01 3.755608522621851186e+00 -4.925751270552627403e+00 4.176682614908544533e-01 -5.174122421433609009e-01 4.176682614908544533e-01 -7.167079060512642208e-01
6.736846912795921405e+00 3.907038497547938860e+00 -5.553709518815280743e-01 3.907038497547938860e+00 -2.541412678603102382e+00 1.155719802911539418e+00 -5.553709518815280743e-01 1.155719802911539418e+00 1.182898988797185025e+00
6.328581444615950957e+00 3.780831456146279024e+00 -1.014539446047943105e+00 3.780831456146279024e+00 -1.095328425914780190e+00 1.743891891943944561e+00 -1.014539446047943105e+00 1.743891891943944561e+00 -4.050617970865986739e-01
5.648953854974076982e+00 3.135711680076086694e+00 -1.007888186322974278e+00 3.135711680076086694e+00 1.646597014867561271e+00 2.294924723841655467e+00 -1.007888186322974278e+00 2.294924723841655467e+00 -7.367205018549295437e-01
5.050770690488871395e+00 2.594096708087016978e+00 -5.841543277981964266e-01 2.594096708087016978e+00 1.914490944329894750e+00 3.843559725285675910e+00 -5.841543277981964266e-01 3.843559725285675910e+00 -2.415767119609622871e+00
2.359227015081401202e+00 2.227940455754975346e+00 -6.859312915305446623e-01 2.227940455754975346e+00 -3.261705215782868095e+00 4.280149171751217452e+00 -6.859312915305446623e-01 4.280149171751217452e+00 -5.171838828210312933e+00
-2.443607467882106477e+00 2.910157086121189618e+00 -1.229504066069392998e+00 2.910157086121189618e+00 -1.356456004743855459e+01 3.864791327529781828e+00 -1.229504066069392998e+00 3.864791327529781828e+00 -1.533043346553460395e+01
-5.795819305784890574e+00 3.167133061622146695e+00 -8.712149391631814899e-01 3.167133061622146695e+00 -1.582193538203684824e+01 3.468636160591803463e+00 -8.712149391631814899e-01 3.468636160591803463e+00 -1.230925717031137268e+01
-4.666222393269342739e+00 3.081863093946938026e+00 -3.607430246925721340e-01 3.081863093946938026e+00 -1.209370570121678412e+01 2.460123156648537091e+00 -3.607430246925721340e-01 2.460123156648537091e+00 -8.710526943765858121e+00
-6.541829065973044699e+00 3.962274055065055034e+00 -3.779644533133200146e-01 3.962274055065055034e+00 -1.223500257682045955e+01 2.234644527037035644e+00 -3.779644533133200146e-01 2.234644527037035644e+00 -1.173888424802540520e+01
-9.179451709792925129e+00 4.862829997556187500e+00 -9.983757413613708609e-01 4.862829997556187500e+00 -1.227914580085899665e+01 2.032079218503736406e+00 -9.983757413613708609e-01 2.032079218503736406e+00 -8.993095722359131017e+00
-7.482840313855512626e+00 4.594652010121863306e+00 -1.094009389368604035e+00 4.594652010121863306e+00 -7.321603914528846957e+00 1.431989612331276307e+00 -1.094009389368604035e+00 1.431989612331276307e+00 -6.767295376535148677e+00
-7.986122645417893517e-01 2.613468975553126405e+00 -5.915863656433969497e-01 2.613468975553126405e+00 -7.696528004874507722e-01 6.089373182833719422e-01 -5.915863656433969497e-01 6.089373182833719422e-01 7.890847071345524988e+00
1.911332414438048799e+00 1.026100516326129863e+00 -1.563065847654184104e+00 1.026100516326129863e+00 4.311146631918073346e+00 6.214328722749063588e-02 -1.563065847654184104e+00 6.214328722749063588e-02 6.500407892868879101e-01