7.773471277650463307e+00 0.000000000000000000e+00 0.000000000000000000e+00 0.000000000000000000e+00 7.773471277650463307e+00 0.000000000000000000e+00 0.000000000000000000e+00 0.000000000000000000e+00 7.815231284514287502e+00
7.775283950497172469e+00 0.000000000000000000e+00 0.000000000000000000e+00 0.000000000000000000e+00 7.775283950497172469e+00 0.000000000000000000e+00 0.000000000000000000e+00 0.000000000000000000e+00 7.817053695253942891e+00
7.780215974130958223e+00 0.000000000000000000e+00 0.000000000000000000e+00 0.000000000000000000e+00 7.780215974130958223e+00 0.000000000000000000e+00 0.000000000000000000e+00 0.000000000000000000e+00 7.822012214302214161e+00
7.787823260641126843e+00 0.000000000000000000e+00 0.000000000000000000e+00 0.000000000000000000e+00 7.787823260641126843e+00 0.000000000000000000e+00 0.000000000000000000e+00 0.000000000000000000e+00 7.829660368054137898e+00
7.796974989984017057e+00 0.000000000000000000e+00 0.000000000000000000e+00 0.000000000000000000e+00 7.796974989984017057e+00 0.000000000000000000e+00 0.000000000000000000e+00 0.000000000000000000e+00 7.838861261570023942e+00
7.806869780396623604e+00 0.000000000000000000e+00 0.000000000000000000e+00 0.000000000000000000e+00 7.806869780396623604e+00 0.000000000000000000e+00 0.000000000000000000e+00 0.000000000000000000e+00 7.848809207965649293e+00
7.816536850485057641e+00 0.000000000000000000e+00 0.000000000000000000e+00 0.000000000000000000e+00 7.816536850485057641e+00 0.000000000000000000e+00 0.000000000000000000e+00 0.000000000000000000e+00 7.858528210698142225e+00
7.823663866551806123e+00 0.000000000000000000e+00 0.000000000000000000e+00 0.000000000000000000e+00 7.823663866551806123e+00 0.000000000000000000e+00 0.000000000000000000e+00 0.000000000000000000e+00 7.865693513937499048e+00
7.826199566019557352e+00 0.000000000000000000e+00 0.000000000000000000e+00 0.000000000000000000e+00 7.826199566019557352e+00 0.000000000000000000e+00 0.000000000000000000e+00 0.000000000000000000e+00 7.868242835482837094e+00
7.822831660563235090e+00 0.000000000000000000e+00 0.000000000000000000e+00 0.000000000000000000e+00 7.822831660563235090e+00 0.000000000000000000e+00 0.000000000000000000e+00 0.000000000000000000e+00 7.864856837240662202e+00
7.813832164773042877e+00 0.000000000000000000e+00 0.000000000000000000e+00 0.000000000000000000e+00 7.813832164773042877e+00 0.000000000000000000e+00 0.000000000000000000e+00 0.000000000000000000e+00 7.855808995094766267e+00
7.801453436925727125e+00 0.000000000000000000e+00 0.000000000000000000e+00 0.000000000000000000e+00 7.801453436925727125e+00 0.000000000000000000e+00 0.000000000000000000e+00 0.000000000000000000e+00 7.843363767258245467e+00
7.789148192816417904e+00 0.000000000000000000e+00 0.000000000000000000e+00 0.000000000000000000e+00 7.789148192816417904e+00 0.000000000000000000e+00 0.000000000000000000e+00 0.000000000000000000e+00 7.830992417922457705e+00
7.779652963457817982e+00 0.000000000000000000e+00 0.000000000000000000e+00 0.000000000000000000e+00 7.779652963457817982e+00 0.000000000000000000e+00 0.000000000000000000e+00 0.000000000000000000e+00 7.821446179068482607e+00
7.774770964572073062e+00 0.000000000000000000e+00 0.000000000000000000e+00 0.000000000000000000e+00 7.774770964572073062e+00 0.000000000000000000e+00 0.000000000000000000e+00 0.000000000000000000e+00 7.816537953507707748e+00
7.775949906498728303e+00 0.000000000000000000e+00 0.000000000000000000e+00 0.000000000000000000e+00 7.775949906498728303e+00 0.000000000000000000e+00 0.000000000000000000e+00 0.000000000000000000e+00 7.817723228849906114e+00
7.784437257175982339e+00 0.000000000000000000e+00 0.000000000000000000e+00 0.000000000000000000e+00 7.784437257175982339e+00 0.000000000000000000e+00 0.000000000000000000e+00 0.000000000000000000e+00 7.826256174578700708e+00
7.799906265503711467e+00 0.000000000000000000e+00 0.000000000000000000e+00 0.000000000000000000e+00 7.799906265503711467e+00 0.000000000000000000e+00 0.000000000000000000e+00 0.000000000000000000e+00 7.841808284248074301e+00
7.818877485775654890e+00 0.000000000000000000e+00 0.000000000000000000e+00 0.000000000000000000e+00 7.818877485775654890e+00 0.000000000000000000e+00 0.000000000000000000e+00 0.000000000000000000e+00 7.860881420158360555e+00
7.837197959873489772e+00 0.000000000000000000e+00 0.000000000000000000e+00 0.000000000000000000e+00 7.837197959873489772e+00 0.000000000000000000e+00 0.000000000000000000e+00 0.000000000000000000e+00 7.879300314009660688e+00
7.851448261261463557e+00 0.000000000000000000e+00 0.000000000000000000e+00 0.000000000000000000e+00 7.851448261261463557e+00 0.000000000000000000e+00 0.000000000000000000e+00 0.000000000000000000e+00 7.893627169700964785e+00
7.859341991649774428e+00 0.000000000000000000e+00 0.000000000000000000e+00 0.000000000000000000e+00 7.859341991649774428e+00 0.000000000000000000e+00 0.000000000000000000e+00 0.000000000000000000e+00 7.901563306143174259e+00
7.860284701536252250e+00 0.000000000000000000e+00 0.000000000000000000e+00 0.000000000000000000e+00 7.860284701536252250e+00 0.000000000000000000e+00 0.000000000000000000e+00 0.000000000000000000e+00 7.902511080377499830e+00
7.854953908720901268e+00 0.000000000000000000e+00 0.000000000000000000e+00 0.000000000000000000e+00 7.854953908720901268e+00 0.000000000000000000e+00 0.000000000000000000e+00 0.000000000000000000e+00 7.897151649912995452e+00
7.845335759557864108e+00 0.000000000000000000e+00 0.000000000000000000e+00 0.000000000000000000e+00 7.845335759557864108e+00 0.000000000000000000e+00 0.000000000000000000e+00 0.000000000000000000e+00 7.887481830915385572e+00
7.834625235151867706e+00 0.000000000000000000e+00 0.000000000000000000e+00 0.000000000000000000e+00 7.834625235151867706e+00 0.000000000000000000e+00 0.000000000000000000e+00 0.000000000000000000e+00 7.876713768306596641e+00
7.824657788790490898e+00 0.000000000000000000e+00 0.000000000000000000e+00 0.000000000000000000e+00 7.824657788790490898e+00 0.000000000000000000e+00 0.000000000000000000e+00 0.000000000000000000e+00 7.866692775644447799e+00
7.815795659244576754e+00 0.000000000000000000e+00 0.000000000000000000e+00 0.000000000000000000e+00 7.815795659244576754e+00 0.000000000000000000e+00 0.000000000000000000e+00 0.000000000000000000e+00 7.857783037690582617e+00
7.809583634371862537e+00 0.000000000000000000e+00 0.000000000000000000e+00 0.000000000000000000e+00 7.809583634371862537e+00 0.000000000000000000e+00 0.000000000000000000e+00 0.000000000000000000e+00 7.851537641085966079e+00
7.808793486175193088e+00 0.000000000000000000e+00 0.000000000000000000e+00 0.000000000000000000e+00 7.808793486175193088e+00 0.000000000000000000e+00 0.000000000000000000e+00 0.000000000000000000e+00 7.850743248119731454e+00
7.813283729980997627e+00 0.000000000000000000e+00 0.000000000000000000e+00 0.000000000000000000e+00 7.813283729980997627e+00 0.000000000000000000e+00 0.000000000000000000e+00 0.000000000000000000e+00 7.855257614045681791e+00
7.820764029856139388e+00 0.000000000000000000e+00 0.000000000000000000e+00 0.000000000000000000e+00 7.820764029856139388e+00 0.000000000000000000e+00 0.000000000000000000e+00 0.000000000000000000e+00 7.862778098977505792e+00
7.829216286987402462e+00 0.000000000000000000e+00 0.000000000000000000e+00 0.000000000000000000e+00 7.829216286987402462e+00 0.000000000000000000e+00 0.000000000000000000e+00 0.000000000000000000e+00 7.871275762633395345e+00
7.835300820855993109e+00 0.000000000000000000e+00 0.000000000000000000e+00 0.000000000000000000e+00 7.835300820855993109e+00 0.000000000000000000e+00 0.000000000000000000e+00 0.000000000000000000e+00 7.877392983336830135e+00
7.836605145315908239e+00 0.000000000000000000e+00 0.000000000000000000e+00 0.000000000000000000e+00 7.836605145315908239e+00 0.000000000000000000e+00 0.000000000000000000e+00 0.000000000000000000e+00 7.878704314781411533e+00
7.832915588449108846e+00 0.000000000000000000e+00 0.000000000000000000e+00 0.000000000000000000e+00 7.832915588449108846e+00 0.000000000000000000e+00 0.000000000000000000e+00 0.000000000000000000e+00 7.874994937178706245e+00
7.824382786372487075e+00 0.000000000000000000e+00 0.000000000000000000e+00 0.000000000000000000e+00 7.824382786372487075e+00 0.000000000000000000e+00 0.000000000000000000e+00 0.000000000000000000e+00 7.866416295880949150e+00
7.812228878607040627e+00 0.000000000000000000e+00 0.000000000000000000e+00 0.000000000000000000e+00 7.812228878607040627e+00 0.000000000000000000e+00 0.000000000000000000e+00 0.000000000000000000e+00 7.854197095885343316e+00
7.800271386442966026e+00 0.000000000000000000e+00 0.000000000000000000e+00 0.000000000000000000e+00 7.800271386442966026e+00 0.000000000000000000e+00 0.000000000000000000e+00 0.000000000000000000e+00 7.842175366660037561e+00
7.792127421666080522e+00 0.000000000000000000e+00 0.000000000000000000e+00 0.000000000000000000e+00 7.792127421666080522e+00 0.000000000000000000e+00 0.000000000000000000e+00 0.000000000000000000e+00 7.833987651540991415e+00
7.789181569212293432e+00 0.000000000000000000e+00 0.000000000000000000e+00 0.000000000000000000e+00 7.789181569212293432e+00 0.000000000000000000e+00 0.000000000000000000e+00 0.000000000000000000e+00 7.831025973619301084e+00
7.790429118435024947e+00 0.000000000000000000e+00 0.000000000000000000e+00 0.000000000000000000e+00 7.790429118435024947e+00 0.000000000000000000e+00 0.000000000000000000e+00 0.000000000000000000e+00 7.832280224824453185e+00
7.793926831562134616e+00 0.000000000000000000e+00 0.000000000000000000e+00 0.000000000000000000e+00 7.793926831562134616e+00 0.000000000000000000e+00 0.000000000000000000e+00 0.000000000000000000e+00 7.835796728080401508e+00
7.798140719050729253e+00 0.000000000000000000e+00 0.000000000000000000e+00 0.000000000000000000e+00 7.798140719050729253e+00 0.000000000000000000e+00 0.000000000000000000e+00 0.000000000000000000e+00 7.840033253070687991e+00
7.802455967598858955e+00 0.000000000000000000e+00 0.000000000000000000e+00 0.000000000000000000e+00 7.802455967598858955e+00 0.000000000000000000e+00 0.000000000000000000e+00 0.000000000000000000e+00 7.844371683644375537e+00
7.805665333510782844e+00 0.000000000000000000e+00 0.000000000000000000e+00 0.000000000000000000e+00 7.805665333510782844e+00 0.000000000000000000e+00 0.000000000000000000e+00 0.000000000000000000e+00 7.847598290649053787e+00
7.806466863158936675e+00 0.000000000000000000e+00 0.000000000000000000e+00 0.000000000000000000e+00 7.806466863158936675e+00 0.000000000000000000e+00 0.000000000000000000e+00 0.000000000000000000e+00 7.848404126209421072e+00
7.804653094862533003e+00 0.000000000000000000e+00 0.000000000000000000e+00 0.000000000000000000e+00 7.804653094862533003e+00 0.000000000000000000e+00 0.000000000000000000e+00 0.000000000000000000e+00 7.846580614135105769e+00
7.801165008342008989e+00 0.000000000000000000e+00 0.000000000000000000e+00 0.000000000000000000e+00 7.801165008342008989e+00 0.000000000000000000e+00 0.000000000000000000e+00 0.000000000000000000e+00 7.843073789202446910e+00
7.796884503619883056e+00 0.000000000000000000e+00 0.000000000000000000e+00 0.000000000000000000e+00 7.796884503619883056e+00 0.000000000000000000e+00 0.000000000000000000e+00 0.000000000000000000e+00 7.838770289102689581e+00
7.792551360393761506e+00 0.000000000000000000e+00 0.000000000000000000e+00 0.000000000000000000e+00 7.792551360393761506e+00 0.000000000000000000e+00 0.000000000000000000e+00 0.000000000000000000e+00 7.834413867717562319e+00
7.788302043869106406e+00 0.000000000000000000e+00 0.000000000000000000e+00 0.000000000000000000e+00 7.788302043869106406e+00 0.000000000000000000e+00 0.000000000000000000e+00 0.000000000000000000e+00 7.830141723363311712e+00
7.784366216920910908e+00 0.000000000000000000e+00 0.000000000000000000e+00 0.000000000000000000e+00 7.784366216920910908e+00 0.000000000000000000e+00 0.000000000000000000e+00 0.000000000000000000e+00 7.826184752685826140e+00
7.781588107744544125e+00 0.000000000000000000e+00 0.000000000000000000e+00 0.000000000000000000e+00 7.781588107744544125e+00 0.000000000000000000e+00 0.000000000000000000e+00 0.000000000000000000e+00 7.823391719178368398e+00
7.781208461253903863e+00 0.000000000000000000e+00 0.000000000000000000e+00 0.000000000000000000e+00 7.781208461253903863e+00 0.000000000000000000e+00 0.000000000000000000e+00 0.000000000000000000e+00 7.823010033182467460e+00
7.783579135270589866e+00 0.000000000000000000e+00 0.000000000000000000e+00 0.000000000000000000e+00 7.783579135270589866e+00 0.000000000000000000e+00 0.000000000000000000e+00 0.000000000000000000e+00 7.825393442739844829e+00
7.788105091731821972e+00 0.000000000000000000e+00 0.000000000000000000e+00 0.000000000000000000e+00 7.788105091731821972e+00 0.000000000000000000e+00 0.000000000000000000e+00 0.000000000000000000e+00 7.829943713175118170e+00
7.794042656719410544e+00 0.000000000000000000e+00 0.000000000000000000e+00 0.000000000000000000e+00 7.794042656719410544e+00 0.000000000000000000e+00 0.000000000000000000e+00 0.000000000000000000e+00 7.835913175464095382e+00
7.800744786486932369e+00 0.000000000000000000e+00 0.000000000000000000e+00 0.000000000000000000e+00 7.800744786486932369e+00 0.000000000000000000e+00 0.000000000000000000e+00 0.000000000000000000e+00 7.842651309864365317e+00
7.807145779117892204e+00 0.000000000000000000e+00 0.000000000000000000e+00 0.000000000000000000e+00 7.807145779117892204e+00 0.000000000000000000e+00 0.000000000000000000e+00 0.000000000000000000e+00 7.849086689385382343e+00
7.812442344745265110e+00 0.000000000000000000e+00 0.000000000000000000e+00 0.000000000000000000e+00 7.812442344745265110e+00 0.000000000000000000e+00 0.000000000000000000e+00 0.000000000000000000e+00 7.854411708788967772e+00
7.816026088596156107e+00 0.000000000000000000e+00 0.000000000000000000e+00 0.000000000000000000e+00 7.816026088596156107e+00 0.000000000000000000e+00 0.000000000000000000e+00 0.000000000000000000e+00 7.858014704936036487e+00
7.816744954943144919e+00 0.000000000000000000e+00 0.000000000000000000e+00 0.000000000000000000e+00 7.816744954943144919e+00 0.000000000000000000e+00 0.000000000000000000e+00 0.000000000000000000e+00 7.858737433118795579e+00
7.813801462583772839e+00 0.000000000000000000e+00 0.000000000000000000e+00 0.000000000000000000e+00 7.813801462583772839e+00 0.000000000000000000e+00 0.000000000000000000e+00 0.000000000000000000e+00 7.855778127970446612e+00
7.808098607519124990e+00 0.000000000000000000e+00 0.000000000000000000e+00 0.000000000000000000e+00 7.808098607519124990e+00 0.000000000000000000e+00 0.000000000000000000e+00 0.000000000000000000e+00 7.850044636493150207e+00
7.801438458746946303e+00 0.000000000000000000e+00 0.000000000000000000e+00 0.000000000000000000e+00 7.801438458746946303e+00 0.000000000000000000e+00 0.000000000000000000e+00 0.000000000000000000e+00 7.843348708613927300e+00
7.795710062692318587e+00 0.000000000000000000e+00 0.000000000000000000e+00 0.000000000000000000e+00 7.795710062692318587e+00 0.000000000000000000e+00 0.000000000000000000e+00 0.000000000000000000e+00 7.837589538939442768e+00
7.792685192602382571e+00 0.000000000000000000e+00 0.000000000000000000e+00 0.000000000000000000e+00 7.792685192602382571e+00 0.000000000000000000e+00 0.000000000000000000e+00 0.000000000000000000e+00 7.834548418889045074e+00
7.793074241805897806e+00 0.000000000000000000e+00 0.000000000000000000e+00 0.000000000000000000e+00 7.793074241805897806e+00 0.000000000000000000e+00 0.000000000000000000e+00 0.000000000000000000e+00 7.834939558110530555e+00
7.796811904652785508e+00 0.000000000000000000e+00 0.000000000000000000e+00 0.000000000000000000e+00 7.796811904652785508e+00 0.000000000000000000e+00 0.000000000000000000e+00 0.000000000000000000e+00 7.838697300123835809e+00
7.804616058099727915e+00 0.000000000000000000e+00 0.000000000000000000e+00 0.000000000000000000e+00 7.804616058099727915e+00 0.000000000000000000e+00 0.000000000000000000e+00 0.000000000000000000e+00 7.846543378406446223e+00
7.816456551991279866e+00 0.000000000000000000e+00 0.000000000000000000e+00 0.000000000000000000e+00 7.816456551991279866e+00 0.000000000000000000e+00 0.000000000000000000e+00 0.000000000000000000e+00 7.858447480830847987e+00
7.829208109294476081e+00 0.000000000000000000e+00 0.000000000000000000e+00 0.000000000000000000e+00 7.829208109294476081e+00 0.000000000000000000e+00 0.000000000000000000e+00 0.000000000000000000e+00 7.871267541007720858e+00
7.838768228137553251e+00 0.000000000000000000e+00 0.000000000000000000e+00 0.000000000000000000e+00 7.838768228137553251e+00 0.000000000000000000e+00 0.000000000000000000e+00 0.000000000000000000e+00 7.880879017940165987e+00
7.843829128816484086e+00 0.000000000000000000e+00 0.000000000000000000e+00 0.000000000000000000e+00 7.843829128816484086e+00 0.000000000000000000e+00 0.000000000000000000e+00 0.000000000000000000e+00 7.885967106375596281e+00
7.845162798527479886e+00 0.000000000000000000e+00 0.000000000000000000e+00 0.000000000000000000e+00 7.845162798527479886e+00 0.000000000000000000e+00 0.000000000000000000e+00 0.000000000000000000e+00 7.887307940718350174e+00
7.843943918365720691e+00 0.000000000000000000e+00 0.000000000000000000e+00 0.000000000000000000e+00 7.843943918365720691e+00 0.000000000000000000e+00 0.000000000000000000e+00 0.000000000000000000e+00 7.886082512588282967e+00
7.841096444553637745e+00 0.000000000000000000e+00 0.000000000000000000e+00 0.000000000000000000e+00 7.841096444553637745e+00 0.000000000000000000e+00 0.000000000000000000e+00 0.000000000000000000e+00 7.883219741809254444e+00
7.835894391517221003e+00 0.000000000000000000e+00 0.000000000000000000e+00 0.000000000000000000e+00 7.835894391517221003e+00 0.000000000000000000e+00 0.000000000000000000e+00 0.000000000000000000e+00 7.877989742729703870e+00
7.827385235921483719e+00 0.000000000000000000e+00 0.000000000000000000e+00 0.000000000000000000e+00 7.827385235921483719e+00 0.000000000000000000e+00 0.000000000000000000e+00 0.000000000000000000e+00 7.869434874944098546e+00
7.816653686129516387e+00 0.000000000000000000e+00 0.000000000000000000e+00 0.000000000000000000e+00 7.816653686129516387e+00 0.000000000000000000e+00 0.000000000000000000e+00 0.000000000000000000e+00 7.858645673996988101e+00
7.806482840684965119e+00 0.000000000000000000e+00 0.000000000000000000e+00 0.000000000000000000e+00 7.806482840684965119e+00 0.000000000000000000e+00 0.000000000000000000e+00 0.000000000000000000e+00 7.848420189567955951e+00
7.799498782035310107e+00 0.000000000000000000e+00 0.000000000000000000e+00 0.000000000000000000e+00 7.799498782035310107e+00 0.000000000000000000e+00 0.000000000000000000e+00 0.000000000000000000e+00 7.841398611730272528e+00
7.797130733986507245e+00 0.000000000000000000e+00 0.000000000000000000e+00 0.000000000000000000e+00 7.797130733986507245e+00 0.000000000000000000e+00 0.000000000000000000e+00 0.000000000000000000e+00 7.839017842246698287e+00
7.798874967075176023e+00 0.000000000000000000e+00 0.000000000000000000e+00 0.000000000000000000e+00 7.798874967075176023e+00 0.000000000000000000e+00 0.000000000000000000e+00 0.000000000000000000e+00 7.840771445561429687e+00
7.803269221490524821e+00 0.000000000000000000e+00 0.000000000000000000e+00 0.000000000000000000e+00 7.803269221490524821e+00 0.000000000000000000e+00 0.000000000000000000e+00 0.000000000000000000e+00 7.845189306431892717e+00
7.809097352777046197e+00 0.000000000000000000e+00 0.000000000000000000e+00 0.000000000000000000e+00 7.809097352777046197e+00 0.000000000000000000e+00 0.000000000000000000e+00 0.000000000000000000e+00 7.851048747128187344e+00
7.815480913778346306e+00 0.000000000000000000e+00 0.000000000000000000e+00 0.000000000000000000e+00 7.815480913778346306e+00 0.000000000000000000e+00 0.000000000000000000e+00 0.000000000000000000e+00 7.857466601375085347e+00
7.820092283177915604e+00 0.000000000000000000e+00 0.000000000000000000e+00 0.000000000000000000e+00 7.820092283177915604e+00 0.000000000000000000e+00 0.000000000000000000e+00 0.000000000000000000e+00 7.862102743596055099e+00
7.820313697875385550e+00 0.000000000000000000e+00 0.000000000000000000e+00 0.000000000000000000e+00 7.820313697875385550e+00 0.000000000000000000e+00 0.000000000000000000e+00 0.000000000000000000e+00 7.862325347758678085e+00
7.815843212109848004e+00 0.000000000000000000e+00 0.000000000000000000e+00 0.000000000000000000e+00 7.815843212109848004e+00 0.000000000000000000e+00 0.000000000000000000e+00 0.000000000000000000e+00 7.857830846016383930e+00
7.808133086909650800e+00 0.000000000000000000e+00 0.000000000000000000e+00 0.000000000000000000e+00 7.808133086909650800e+00 0.000000000000000000e+00 0.000000000000000000e+00 0.000000000000000000e+00 7.850079301111610341e+00
7.799032878136193503e+00 0.000000000000000000e+00 0.000000000000000000e+00 0.000000000000000000e+00 7.799032878136193503e+00 0.000000000000000000e+00 0.000000000000000000e+00 0.000000000000000000e+00 7.840930204940562476e+00
7.790733138012996051e+00 0.000000000000000000e+00 0.000000000000000000e+00 0.000000000000000000e+00 7.790733138012996051e+00 0.000000000000000000e+00 0.000000000000000000e+00 0.000000000000000000e+00 7.832585877631023763e+00
7.785066964795195332e+00 0.000000000000000000e+00 0.000000000000000000e+00 0.000000000000000000e+00 7.785066964795195332e+00 0.000000000000000000e+00 0.000000000000000000e+00 0.000000000000000000e+00 7.826889265061440781e+00
7.782761407450678348e+00 0.000000000000000000e+00 0.000000000000000000e+00 0.000000000000000000e+00 7.782761407450678348e+00 0.000000000000000000e+00 0.000000000000000000e+00 0.000000000000000000e+00 7.824571321990219985e+00
7.784141150151463684e+00 0.000000000000000000e+00 0.000000000000000000e+00 0.000000000000000000e+00 7.784141150151463684e+00 0.000000000000000000e+00 0.000000000000000000e+00 0.000000000000000000e+00 7.825958476831338828e+00
7.789035283572357748e+00 0.000000000000000000e+00 0.000000000000000000e+00 0.000000000000000000e+00 7.789035283572357748e+00 0.000000000000000000e+00 0.000000000000000000e+00 0.000000000000000000e+00 7.830878902115888884e+00
7.796296593003074094e+00 0.000000000000000000e+00 0.000000000000000000e+00 0.000000000000000000e+00 7.796296593003074094e+00 0.000000000000000000e+00 0.000000000000000000e+00 0.000000000000000000e+00 7.838179220160060190e+00
7.803895244846946078e+00 0.000000000000000000e+00 0.000000000000000000e+00 0.000000000000000000e+00 7.803895244846946078e+00 0.000000000000000000e+00 0.000000000000000000e+00 0.000000000000000000e+00 7.845818692859954702e+00
7.809809444893029529e+00 0.000000000000000000e+00 0.000000000000000000e+00 0.000000000000000000e+00 7.809809444893029529e+00 0.000000000000000000e+00 0.000000000000000000e+00 0.000000000000000000e+00 7.851764664688150042e+00
7.812388807522442136e+00 0.000000000000000000e+00 0.000000000000000000e+00 0.000000000000000000e+00 7.812388807522442136e+00 0.000000000000000000e+00 0.000000000000000000e+00 0.000000000000000000e+00 7.854357883958799746e+00
7.810695260463008438e+00 0.000000000000000000e+00 0.000000000000000000e+00 0.000000000000000000e+00 7.810695260463008438e+00 0.000000000000000000e+00 0.000000000000000000e+00 0.000000000000000000e+00 7.852655238963736295e+00
7.805054790764250683e+00 0.000000000000000000e+00 0.000000000000000000e+00 0.000000000000000000e+00 7.805054790764250683e+00 0.000000000000000000e+00 0.000000000000000000e+00 0.000000000000000000e+00 7.846984467995401502e+00
7.796935151296340294e+00 0.000000000000000000e+00 0.000000000000000000e+00 0.000000000000000000e+00 7.796935151296340294e+00 0.000000000000000000e+00 0.000000000000000000e+00 0.000000000000000000e+00 7.838821208863580026e+00
7.788514474157294032e+00 0.000000000000000000e+00 0.000000000000000000e+00 0.000000000000000000e+00 7.788514474157294032e+00 0.000000000000000000e+00 0.000000000000000000e+00 0.000000000000000000e+00 7.830355294851929493e+00
7.781789538638047787e+00 0.000000000000000000e+00 0.000000000000000000e+00 0.000000000000000000e+00 7.781789538638047787e+00 0.000000000000000000e+00 0.000000000000000000e+00 0.000000000000000000e+00 7.823594232182641939e+00
7.778103704219820003e+00 0.000000000000000000e+00 0.000000000000000000e+00 0.000000000000000000e+00 7.778103704219820003e+00 0.000000000000000000e+00 0.000000000000000000e+00 0.000000000000000000e+00 7.819888597026394272e+00
7.778465005756059369e+00 0.000000000000000000e+00 0.000000000000000000e+00 0.000000000000000000e+00 7.778465005756059369e+00 0.000000000000000000e+00 0.000000000000000000e+00 0.000000000000000000e+00 7.820251839517461612e+00
7.783698346402375456e+00 0.000000000000000000e+00 0.000000000000000000e+00 0.000000000000000000e+00 7.783698346402375456e+00 0.000000000000000000e+00 0.000000000000000000e+00 0.000000000000000000e+00 7.825513294288943378e+00
7.792953657469017692e+00 0.000000000000000000e+00 0.000000000000000000e+00 0.000000000000000000e+00 7.792953657469017692e+00 0.000000000000000000e+00 0.000000000000000000e+00 0.000000000000000000e+00 7.834818325980378972e+00
7.803693913416870132e+00 0.000000000000000000e+00 0.000000000000000000e+00 0.000000000000000000e+00 7.803693913416870132e+00 0.000000000000000000e+00 0.000000000000000000e+00 0.000000000000000000e+00 7.845616279853104835e+00
7.813782005902772276e+00 0.000000000000000000e+00 0.000000000000000000e+00 0.000000000000000000e+00 7.813782005902772276e+00 0.000000000000000000e+00 0.000000000000000000e+00 0.000000000000000000e+00 7.855758566765047135e+00
7.821728460800584593e+00 0.000000000000000000e+00 0.000000000000000000e+00 0.000000000000000000e+00 7.821728460800584593e+00 0.000000000000000000e+00 0.000000000000000000e+00 0.000000000000000000e+00 7.863747710958127080e+00
7.825997467500896754e+00 0.000000000000000000e+00 0.000000000000000000e+00 0.000000000000000000e+00 7.825997467500896754e+00 0.000000000000000000e+00 0.000000000000000000e+00 0.000000000000000000e+00 7.868039651267426215e+00
7.825632119757948146e+00 0.000000000000000000e+00 0.000000000000000000e+00 0.000000000000000000e+00 7.825632119757948146e+00 0.000000000000000000e+00 0.000000000000000000e+00 0.000000000000000000e+00 7.867672340832776001e+00
7.820424553266268397e+00 0.000000000000000000e+00 0.000000000000000000e+00 0.000000000000000000e+00 7.820424553266268397e+00 0.000000000000000000e+00 0.000000000000000000e+00 0.000000000000000000e+00 7.862436798679132366e+00
7.811798837485486757e+00 0.000000000000000000e+00 0.000000000000000000e+00 0.000000000000000000e+00 7.811798837485486757e+00 0.000000000000000000e+00 0.000000000000000000e+00 0.000000000000000000e+00 7.853764744533087594e+00
7.801816497370842818e+00 0.000000000000000000e+00 0.000000000000000000e+00 0.000000000000000000e+00 7.801816497370842818e+00 0.000000000000000000e+00 0.000000000000000000e+00 0.000000000000000000e+00 7.843728778107133870e+00
7.793016373335006186e+00 0.000000000000000000e+00 0.000000000000000000e+00 0.000000000000000000e+00 7.793016373335006186e+00 0.000000000000000000e+00 0.000000000000000000e+00 0.000000000000000000e+00 7.834881378763427939e+00
7.787976243850509128e+00 0.000000000000000000e+00 0.000000000000000000e+00 0.000000000000000000e+00 7.787976243850509128e+00 0.000000000000000000e+00 0.000000000000000000e+00 0.000000000000000000e+00 7.829814173106790065e+00
7.789100327498945653e+00 0.000000000000000000e+00 0.000000000000000000e+00 0.000000000000000000e+00 7.789100327498945653e+00 0.000000000000000000e+00 0.000000000000000000e+00 0.000000000000000000e+00 7.830944295466465199e+00
7.799321155765780667e+00 0.000000000000000000e+00 0.000000000000000000e+00 0.000000000000000000e+00 7.799321155765780667e+00 0.000000000000000000e+00 0.000000000000000000e+00 0.000000000000000000e+00 7.841220031231236121e+00
7.819181282513910425e+00 0.000000000000000000e+00 0.000000000000000000e+00 0.000000000000000000e+00 7.819181282513910425e+00 0.000000000000000000e+00 0.000000000000000000e+00 0.000000000000000000e+00 7.861186848928220172e+00
7.842058880458567138e+00 0.000000000000000000e+00 0.000000000000000000e+00 0.000000000000000000e+00 7.842058880458567138e+00 0.000000000000000000e+00 0.000000000000000000e+00 0.000000000000000000e+00 7.884187348035421650e+00
7.861153371100928489e+00 0.000000000000000000e+00 0.000000000000000000e+00 0.000000000000000000e+00 7.861153371100928489e+00 0.000000000000000000e+00 0.000000000000000000e+00 0.000000000000000000e+00 7.903384416538314028e+00
7.873041739953897000e+00 0.000000000000000000e+00 0.000000000000000000e+00 0.000000000000000000e+00 7.873041739953897000e+00 0.000000000000000000e+00 0.000000000000000000e+00 0.000000000000000000e+00 7.915336651114651900e+00
7.876273709558707203e+00 0.000000000000000000e+00 0.000000000000000000e+00 0.000000000000000000e+00 7.876273709558707203e+00 0.000000000000000000e+00 0.000000000000000000e+00 0.000000000000000000e+00 7.918585983241517745e+00
7.869919617635773967e+00 0.000000000000000000e+00 0.000000000000000000e+00 0.000000000000000000e+00 7.869919617635773967e+00 0.000000000000000000e+00 0.000000000000000000e+00 0.000000000000000000e+00 7.912197756386075476e+00
7.855587213600407459e+00 0.000000000000000000e+00 0.000000000000000000e+00 0.000000000000000000e+00 7.855587213600407459e+00 0.000000000000000000e+00 0.000000000000000000e+00 0.000000000000000000e+00 7.897788356981918056e+00
7.836608250836031964e+00 0.000000000000000000e+00 0.000000000000000000e+00 0.000000000000000000e+00 7.836608250836031964e+00 0.000000000000000000e+00 0.000000000000000000e+00 0.000000000000000000e+00 7.878707436985439294e+00
7.816373289245564848e+00 0.000000000000000000e+00 0.000000000000000000e+00 0.000000000000000000e+00 7.816373289245564848e+00 0.000000000000000000e+00 0.000000000000000000e+00 0.000000000000000000e+00 7.858363770788708180e+00
7.798936186287780181e+00 0.000000000000000000e+00 0.000000000000000000e+00 0.000000000000000000e+00 7.798936186287780181e+00 0.000000000000000000e+00 0.000000000000000000e+00 0.000000000000000000e+00 7.840832993651139837e+00