2.213118153999999848e-03 7.772533746265000154e+00 2.633816455000000112e-03 3.887270420601999898e+00 7.771227789556999888e+00 4.596154604000000053e-03 7.765602476735000259e+00 3.888514503841999925e+00 7.814274910692000198e+00 3.893109798374999819e+00 3.878938832439999818e+00 1.270343518000000048e-03 1.337371021000000092e-03 5.231937084000000404e-03 3.904407228993000079e+00 3.886085316792999844e+00 7.772487884431000360e+00 3.909153519240000207e+00 7.767757240815999609e+00 3.885883692253000010e+00 3.908252986267000129e+00 3.889418157444000101e+00 3.890036328117000064e+00 3.902636530864000086e+00 1.952335271067999978e+00 1.945552219017999906e+00 1.954245423261000036e+00 5.830633404890000371e+00 1.940047877273000099e+00 1.959000855216000092e+00 1.942363243780999893e+00 5.837894301124999963e+00 1.953178033509000100e+00 5.832665661592000284e+00 5.823995937170000303e+00 1.949918733053999986e+00 1.941881309138000056e+00 1.939502890361000098e+00 5.856775244701999839e+00 5.831069018592000219e+00 1.947451224636999934e+00 5.860423794401000031e+00 1.941285163812999981e+00 5.826934767770000079e+00 5.853677885239999767e+00 5.829755260475000256e+00 5.827307503686999901e+00 5.868331952242000327e+00 7.773019833840000281e+00 1.784685940481999911e+00 1.954597895764000004e+00 3.880300675787000220e+00 2.119102963138999929e+00 1.960364842848000055e+00 9.127390559999999696e-04 6.008081964365000083e+00 1.946850569683000076e+00 3.893199543084000069e+00 5.665049464654999589e+00 1.942832332744000023e+00 2.465913020000000053e-03 2.112490645378000131e+00 5.860563846057999626e+00 3.893414193798999889e+00 1.775454704676000084e+00 5.857708753648999789e+00 7.769703692295999886e+00 5.657005007533999930e+00 5.852942001857000420e+00 3.896152361304999978e+00 6.011125274154999865e+00 5.862747640447000030e+00 2.121250170192999995e+00 7.835372416000000242e-03 1.953350658154999975e+00 5.658527082766999783e+00 7.770473463103000356e+00 1.964472500299000002e+00 1.767502385295999900e+00 3.891945061551000062e+00 1.953507215789999973e+00 5.992194724610000023e+00 3.903200442848000051e+00 1.946475974833999922e+00 1.771960112903999907e+00 7.761567865371000075e+00 5.870320675880000394e+00 5.999003009055999591e+00 7.771346219261999977e+00 5.849392422749000175e+00 2.110991711712999930e+00 3.882050607007000220e+00 5.873703751811000018e+00 5.634559858718000136e+00 3.886792655873000157e+00 5.875346412526999629e+00 1.954437099503999908e+00 1.935543187551999944e+00 1.162504449299999951e-02 5.822489270686999951e+00 1.937297185192000004e+00 7.807422837992000098e+00 1.945736319132000069e+00 5.817944041023999979e+00 7.809833701231999825e+00 5.832272988020999804e+00 5.827474297374999779e+00 2.757784936999999829e-03 1.935838581845999995e+00 1.947878587438000020e+00 3.902567013607999957e+00 5.828621477283999930e+00 1.938058299966999964e+00 3.903586760132999878e+00 1.948569298395000038e+00 5.835824637702000217e+00 3.908715742451999819e+00 5.830241515465999669e+00 5.836125979702000421e+00 3.918756451455000178e+00
1.310219349800000044e-02 7.769953115202000049e+00 1.527412888200000048e-02 3.890921555175999913e+00 7.761563662718000245e+00 2.672923983099999984e-02 7.729726787226000262e+00 3.898198706264000002e+00 7.811671122903000253e+00 3.924436647653000154e+00 3.841654210879000164e+00 7.568828377000000329e-03 7.057885598000000066e-03 3.063289682699999947e-02 3.889716276505000181e+00 3.884892169047000188e+00 7.768867804654999709e+00 3.918267073345000018e+00 7.741738647195999690e+00 3.882887854643000125e+00 3.911675399234999961e+00 3.903403618849000001e+00 3.907844688003999867e+00 3.879266462368999857e+00 1.994454587371000009e+00 1.960045800669000027e+00 1.954254919138000091e+00 5.836540986829000133e+00 1.920704203114000030e+00 1.983336025767000077e+00 1.939428382790999938e+00 5.873784574224999666e+00 1.945998457404999993e+00 5.844553770591000230e+00 5.798662613978000202e+00 1.934947982978000081e+00 1.938037743978999972e+00 1.921936402357999896e+00 5.837468874634000215e+00 5.834516434125999851e+00 1.963500442011000047e+00 5.858760830907000283e+00 1.933471458831000023e+00 5.811757672668999675e+00 5.821554594826999995e+00 5.827400083188999602e+00 5.819128548394999711e+00 5.899802083114000339e+00 7.761629821495000137e+00 1.870557843340999948e+00 1.956779343196000109e+00 3.864895245537999902e+00 2.119597472839000130e+00 1.994756388969999961e+00 1.085564328499999918e-02 6.020050517489000441e+00 1.916212391898999945e+00 3.915024685280000138e+00 5.723069364895000177e+00 1.893438971366999901e+00 1.336027233499999939e-02 2.079848927331000130e+00 5.858295698254999628e+00 3.912108593294000070e+00 1.813399176366000010e+00 5.837116615183999713e+00 7.760327703257000387e+00 5.669278400942999951e+00 5.815307239614000423e+00 3.927479428783999804e+00 6.032293112200999730e+00 5.870748399254000383e+00 2.125903601775000151e+00 3.641994665500000034e-02 1.954096839103000027e+00 5.683993088073999722e+00 7.773842457131999950e+00 2.012898805803000180e+00 1.771571865519999900e+00 3.921472208732000198e+00 1.956662127638999937e+00 5.926481046998000046e+00 3.960120922630999907e+00 1.915079048254000105e+00 1.795024842566999901e+00 7.721255828811999677e+00 5.912371575855999595e+00 5.968375855162999954e+00 7.771380938824999696e+00 5.798151375318999712e+00 2.070126426144999865e+00 3.857067955874000198e+00 5.928541815274000371e+00 5.552557557864999715e+00 3.882542441886000173e+00 5.938881828595000023e+00 2.006132979635999902e+00 1.897689830055999893e+00 5.209473461300000163e-02 5.788930991964000405e+00 1.908115072465000006e+00 7.784315088459999643e+00 1.955642818779999903e+00 5.765409672401999863e+00 7.792843499866999757e+00 5.849092091019000073e+00 5.820604099001999820e+00 1.486669148300000069e-02 1.900643778474000012e+00 1.967187691326000021e+00 3.895186841161999869e+00 5.825021095303999807e+00 1.922433788880999916e+00 3.883329979232000184e+00 1.975358247611999962e+00 5.862743215401000185e+00 3.910246084523000043e+00 5.833500347494999794e+00 5.858019530831000132e+00 3.959084708694000199e+00
2.365047457599999889e-02 7.771996652888000234e+00 2.576766755199999884e-02 3.896095473331000036e+00 7.754333517373999562e+00 4.573641727999999684e-02 7.703196498240999723e+00 3.908600022716000044e+00 7.813387102145999741e+00 3.951318263826999910e+00 3.808727306974000193e+00 1.401002418500000082e-02 9.788844592000000774e-03 5.343932048700000131e-02 3.878319794357000028e+00 3.888940564962999780e+00 7.766930067207000299e+00 3.930643138958000105e+00 7.721885111768999721e+00 3.882351554436000107e+00 3.914324976033999981e+00 3.917546856753999940e+00 3.928280316748999912e+00 3.859755670848000086e+00 2.025015102905999953e+00 1.985770199040999939e+00 1.946881047418999922e+00 5.851522323202999587e+00 1.892398416820999962e+00 2.000363383017000007e+00 1.942982860891000030e+00 5.896172307657000289e+00 1.924677448151999926e+00 5.851003755583000121e+00 5.790972199629999650e+00 1.935140347348000001e+00 1.945319949988999930e+00 1.910065983041999926e+00 5.828489958427000239e+00 5.831527867479000093e+00 1.963391274551999910e+00 5.866160287770999737e+00 1.932625470270999957e+00 5.796778943447000287e+00 5.810227653220000121e+00 5.820922373490000190e+00 5.827901872310000009e+00 5.917345792508999835e+00 7.733934845554999882e+00 1.945933523819999955e+00 1.951276506272999978e+00 3.889362767439000113e+00 2.129172167370000146e+00 2.032435706933000130e+00 2.618760426000000044e-02 6.038900062307999583e+00 1.900904777894999897e+00 3.911286076159000036e+00 5.784581257772000384e+00 1.862799661611999946e+00 9.692296213999999563e-03 2.058167680786000098e+00 5.862584441500000132e+00 3.889405985010999878e+00 1.835123399021000079e+00 5.808000082815000020e+00 7.771940810205999917e+00 5.669405695714000437e+00 5.793600931594999892e+00 3.914589346807999970e+00 6.040256487300999844e+00 5.881155640464999834e+00 2.115839195281000062e+00 3.868217911099999795e-02 1.965230905072999912e+00 5.714004682851999917e+00 3.655064563000000322e-02 2.041987881192000032e+00 1.783999500515000003e+00 3.949245091087000059e+00 1.975032358800999921e+00 5.878369922193000363e+00 3.942607806047000008e+00 1.901600974444999981e+00 1.811667066230000067e+00 7.732760348388000082e+00 5.942280685880000135e+00 5.954982783173999650e+00 1.497293224900000073e-02 5.776336326611000160e+00 2.037499415705999795e+00 3.836367734017999798e+00 5.957702203539000152e+00 5.522636925646000172e+00 3.873678626749999854e+00 5.975660576863999651e+00 2.043113954724999903e+00 1.867239917677000038e+00 4.891138602100000149e-02 5.768847043008999975e+00 1.882696945441999947e+00 7.800539323925000268e+00 1.957455477052999937e+00 5.742205757201999994e+00 7.802660063443999761e+00 5.883757125923000153e+00 5.834080653070000011e+00 1.680925772399999990e-02 1.873833660475000107e+00 1.973635960521999966e+00 3.928158017130999990e+00 5.831930756478000077e+00 1.943848109945000013e+00 3.876452897636000205e+00 2.003467493460000082e+00 5.880926131675000335e+00 3.901680483913000153e+00 5.841479286102999602e+00 5.847780515321000294e+00 3.949013938738000107e+00
3.443731853899999890e-02 7.779858802833000020e+00 3.260909931599999950e-02 3.901624121588000094e+00 7.749805105020000084e+00 6.028234889100000243e-02 7.687870153054999989e+00 3.918026319518999934e+00 7.818948952509000350e+00 3.970750054020999897e+00 3.780860190694999901e+00 2.081082349999999886e-02 1.042452271199999919e-02 7.306254835999999309e-02 3.871134735910000124e+00 3.897342131519000219e+00 7.766955195486000108e+00 3.945900063827000093e+00 7.709461102439999713e+00 3.883245911077000123e+00 3.915641854207999817e+00 3.930791833779000211e+00 3.950188100610999786e+00 3.845045041029000021e+00 2.041058142897000049e+00 2.021957288408999798e+00 1.932777572613999961e+00 5.875325883067000099e+00 1.864304260901000099e+00 2.006673680187999853e+00 1.952819287449000019e+00 5.901910231569999610e+00 1.890288820704000061e+00 5.851281895459999660e+00 5.796900924237999853e+00 1.954071153501000024e+00 1.962113406025000062e+00 1.904231137400000051e+00 5.830540312706999906e+00 5.823877241997999832e+00 1.945694573104000069e+00 5.882628200822000331e+00 1.937141793971999926e+00 5.782573855190999979e+00 5.820059221824999796e+00 5.810765048616000072e+00 5.853491651997999590e+00 5.916093968092999589e+00 7.732079699853000143e+00 1.999478394859000030e+00 1.934766442883000037e+00 3.911246154376000206e+00 2.142719980202000052e+00 2.069027587453000194e+00 1.966820359400000065e-02 6.057720417228000365e+00 1.907084245267000044e+00 3.908998024984000175e+00 5.845440661520999726e+00 1.852422152709999992e+00 7.758521258759000006e+00 2.053594526682999799e+00 5.880784497785000120e+00 3.849706383152999845e+00 1.834891784782000101e+00 5.774488500013999825e+00 7.784364230476000124e+00 5.662525688896000275e+00 5.791716535527999810e+00 3.883577540002999928e+00 6.029492281357000216e+00 5.893942126236000334e+00 2.085507499972000023e+00 3.811463521399999915e-02 1.986903408871999899e+00 5.745488635554999668e+00 5.735556696800000326e-02 2.049090926647000099e+00 1.811361845583999930e+00 3.949207866082999896e+00 2.007980882388999966e+00 5.852609832185000194e+00 3.903936385829999800e+00 1.904281267753000106e+00 1.815859621256999956e+00 7.771139640467000120e+00 5.955085380807999762e+00 5.954692028370000223e+00 2.667017838400000118e-02 5.785744636322999845e+00 2.017999621693999934e+00 3.848688436884999842e+00 5.957609850875999591e+00 5.560394154823000257e+00 3.883600477939999962e+00 5.977718478248999823e+00 2.062414045800000206e+00 1.855111270275999980e+00 3.711773071899999998e-02 5.759324388680999718e+00 1.861955670468000035e+00 4.763757314000000020e-03 1.947828005554000041e+00 5.757023055960999613e+00 1.948160769999999955e-03 5.931615846629999744e+00 5.873562140223000050e+00 7.829490231887000107e+00 1.856979560996999901e+00 1.963132177946000034e+00 3.957999282012000020e+00 5.850828839519000013e+00 2.005451909831000190e+00 3.910884716388999927e+00 2.030417739585999914e+00 5.885413073411999818e+00 3.898654810715000085e+00 5.848818113713999622e+00 5.803098696511000298e+00 3.895415063415999857e+00
4.580820866399999691e-02 7.792939767767999903e+00 3.510134750499999817e-02 3.906020279335999934e+00 7.747713943905999656e+00 7.028122871899999957e-02 7.681639650179000078e+00 3.925353938556999989e+00 7.826005701287000349e+00 3.983234214045999977e+00 3.758430715753000140e+00 2.695918548100000034e-02 1.235959456399999927e-02 8.910570642600000590e-02 3.868286801595000046e+00 3.905899202081999810e+00 7.769026392376000345e+00 3.961673946578999850e+00 7.704038002947999786e+00 3.884271456818999990e+00 3.916483711463000006e+00 3.942149156981999969e+00 3.971259472740999996e+00 3.835550931809999842e+00 2.043792688644999966e+00 2.058039656676999840e+00 1.918931677446999995e+00 5.903170549188000216e+00 1.854296144080000097e+00 2.005983507113000108e+00 1.962655568646000104e+00 5.898644107888999955e+00 1.857988291163999994e+00 5.850673488894000407e+00 5.803612909511000062e+00 1.983412709813000108e+00 1.977151073541999926e+00 1.902130069867000062e+00 5.838349432350000257e+00 5.820736400794999987e+00 1.922701760577000041e+00 5.902359101726999846e+00 1.939658894566000047e+00 5.770130652577999619e+00 5.836261512436999865e+00 5.804097411249999894e+00 5.884002826406000253e+00 5.903966330704999876e+00 7.772943019891999761e+00 2.020531657163000094e+00 1.909692593498000024e+00 3.901201352733000061e+00 2.145017857080000034e+00 2.096868888268999864e+00 7.786288799953999806e+00 6.062057430542999725e+00 1.933876912214999910e+00 3.925921441279999868e+00 5.895026881256000273e+00 1.853934037021000014e+00 7.705978185453999707e+00 2.065626714937999875e+00 5.920895164600000093e+00 3.837094217091999937e+00 1.820148392562999984e+00 5.751176007440999882e+00 7.779822776522999916e+00 5.663577660258999558e+00 5.803987236611999556e+00 3.875792249688000179e+00 6.006312299988000092e+00 5.909543147245999606e+00 2.039022965726999814e+00 4.839301537000000042e-02 2.009425816264999831e+00 5.772768637942999881e+00 2.253520620399999952e-02 2.047466019462000020e+00 1.854924836049000048e+00 3.925737076138999804e+00 2.040873525378999798e+00 5.847945925646000020e+00 3.911269649319999875e+00 1.906757209735999936e+00 1.804260085604000086e+00 3.342732792000000040e-03 5.953605804869000373e+00 5.952969305945000400e+00 2.207207217000000093e-03 5.808341878841999595e+00 2.014366598514000017e+00 3.897895082664000199e+00 5.939969800501000208e+00 5.644220574997000028e+00 3.918602132283000028e+00 5.958689154737999871e+00 2.068487497676000153e+00 1.873155220562999990e+00 4.623023531599999847e-02 5.746342900954999777e+00 1.845804190638000053e+00 2.500047074700000038e-02 1.927833618138000027e+00 5.803189079026999764e+00 2.176985985599999909e-02 5.974264351222999814e+00 5.932618468289000191e+00 7.803882619844999979e+00 1.843549837667999958e+00 1.940714013997999920e+00 3.951717988241000068e+00 5.878322426939999623e+00 2.080059666952000175e+00 3.966420143307999968e+00 2.053329866766000045e+00 5.876647206606000040e+00 3.918142739538999830e+00 5.845768539674000230e+00 5.747674785980000145e+00 3.842766242586999947e+00
5.696673674000000270e-02 2.063084074999999885e-03 3.373176655099999893e-02 3.909223371667000180e+00 7.747019575026000027e+00 7.639765277200000204e-02 7.681021629436999731e+00 3.931851292763000050e+00 7.831821519074000371e+00 3.991444790965000156e+00 3.742910743442000143e+00 3.061844758700000071e-02 1.879408066200000116e-02 1.000143949010000033e-01 3.869274643613000109e+00 3.910511480617000046e+00 7.772492252462999573e+00 3.975101551278999779e+00 7.705112677735000304e+00 3.886219973203000055e+00 3.918842326442999902e+00 3.950941972533999813e+00 3.989856872770999985e+00 3.832017977601999803e+00 2.034479124508000059e+00 2.077876785182999786e+00 1.915034368166999901e+00 5.929550792408000426e+00 1.865000648799000071e+00 2.003834845844000068e+00 1.965926611803999968e+00 5.899359154955999607e+00 1.848051504679999901e+00 5.857130714768000068e+00 5.809270424561000290e+00 2.005907680071000065e+00 1.981626838876999974e+00 1.899880054734000012e+00 5.842583236493999799e+00 5.829693292618999934e+00 1.909024892504999960e+00 5.919128388752000092e+00 1.932540312283999917e+00 5.763814463126999854e+00 5.841733477726999801e+00 5.809649344082999711e+00 5.902394648485000062e+00 5.896421180814000351e+00 1.402600619000000069e-03 2.007013764147000057e+00 1.883086979892999890e+00 3.894370778253999799e+00 2.123320941973999787e+00 2.111078484347999940e+00 7.780744575579999989e+00 6.037878080788999569e+00 1.974478261098000065e+00 3.933637141475000210e+00 5.921959987350000176e+00 1.857326579963000102e+00 7.681931572413000175e+00 2.084129830621999968e+00 5.985233164044999832e+00 3.858278049358999873e+00 1.805488571736999948e+00 5.753238011858999634e+00 7.777045418020000156e+00 5.684397652420000391e+00 5.818009750617999742e+00 3.894929971473000130e+00 5.983021723933999780e+00 5.929342910966999725e+00 1.987046912884999905e+00 4.685311834599999864e-02 2.019807538983999784e+00 5.796077327715999594e+00 7.804075137983000232e+00 2.054571191146000064e+00 1.907140091844000018e+00 3.928247612247000031e+00 2.057677518499999803e+00 5.860245538953000377e+00 3.940734703521000082e+00 1.890753462955000019e+00 1.780565404115999950e+00 1.815099336200000010e-02 5.944878869529000021e+00 5.941850843453999609e+00 7.779707782867999910e+00 5.817185596255000313e+00 2.027240451402000154e+00 3.932714698059999847e+00 5.921502411319999659e+00 5.733364709137999782e+00 3.946866754741999994e+00 5.943828919440999670e+00 2.068418881127000120e+00 1.925610819749000058e+00 4.979297262099999927e-02 5.720322008011000214e+00 1.836491888142999906e+00 4.390946556400000117e-02 1.901604534320000095e+00 5.863966090435000389e+00 2.613009226600000040e-02 5.993959440096999991e+00 5.995949741679999612e+00 7.779636613645999788e+00 1.825279078556000023e+00 1.918283223436999974e+00 3.942989925726000155e+00 5.908786297683000122e+00 2.129584467173000206e+00 3.983126131955000204e+00 2.070133067142999828e+00 5.862024902623000244e+00 3.954536401742999807e+00 5.825436244502999905e+00 5.709187853429000370e+00 3.844310744352000153e+00
6.672795598899999847e-02 8.575255004000000361e-03 2.919855150900000154e-02 3.911826710280999819e+00 7.746322139673999629e+00 7.891185445999999992e-02 7.683823641812000282e+00 3.939104515944999996e+00 7.833930259084000092e+00 3.996396102120999938e+00 3.735404005496000046e+00 3.025832555200000037e-02 3.030214578399999942e-02 1.040861904859999992e-01 3.873255189363999929e+00 3.909736873579999994e+00 7.776180891014999652e+00 3.984412804389000140e+00 7.711944658755999882e+00 3.890700247749999896e+00 3.924225030818000004e+00 3.956342941507000166e+00 4.004349149237000027e+00 3.835012403856000063e+00 2.018900882046000156e+00 2.072876351579000076e+00 1.923875372376000037e+00 5.946357465091000272e+00 1.887467975874999926e+00 2.002425005232999933e+00 1.960655131236999971e+00 5.910721018520000314e+00 1.866160588490000105e+00 5.873450582641000395e+00 5.819927382949000361e+00 2.012093216869999868e+00 1.976128342726999998e+00 1.895524052857000097e+00 5.839749015036000301e+00 5.850782999567000431e+00 1.910431268274999983e+00 5.929300106236000012e+00 1.915156364745999928e+00 5.767346192277000405e+00 5.831849125688999713e+00 5.827723364626000269e+00 5.897781054853999727e+00 5.902126129904000429e+00 7.808366504020000320e+00 1.972835146418000063e+00 1.859768213866000108e+00 3.907708827317999845e+00 2.076470723871000068e+00 2.113069954529999794e+00 7.807216545191000279e+00 5.980674032550999719e+00 2.024198482116999820e+00 3.915410546752999821e+00 5.921087793207999717e+00 1.859514341664999959e+00 7.719988714531999641e+00 2.094424543638000014e+00 6.065214172469000076e+00 3.886765298334999841e+00 1.801957996472000056e+00 5.782697035373000283e+00 7.804610492956999934e+00 5.726012428496000339e+00 5.822445757001999844e+00 3.915022103461999858e+00 5.968586587856999692e+00 5.954065118904999565e+00 1.941150845816999926e+00 2.574299420500000130e-02 2.012417895143999935e+00 5.819042013527999657e+00 3.061106564899999938e-02 2.080420747614999843e+00 1.956350679402000026e+00 3.970810604016000056e+00 2.053483906711000007e+00 5.884264229360000265e+00 3.949601084070000212e+00 1.849127171237999967e+00 1.754927181498999955e+00 4.261353550099999943e-02 5.933478340766000336e+00 5.926571653290999997e+00 7.811049983196999946e+00 5.791988395204000106e+00 2.052608809680000146e+00 3.911183425219999954e+00 5.912751561214999896e+00 5.796716017066000148e+00 3.934476017365000189e+00 5.952524309315999851e+00 2.066806815216000182e+00 2.002161546079999965e+00 2.987444849299999983e-02 5.685264910056000431e+00 1.837532629355000058e+00 5.771859078399999704e-02 1.873126764288000068e+00 5.923337531802999933e+00 1.729898781599999852e-02 5.987227028849000376e+00 6.047769180826000124e+00 7.791212083695000068e+00 1.799660729681999971e+00 1.909929233716999963e+00 3.959898276076000201e+00 5.940523062937000276e+00 2.133782908729000116e+00 3.941172764258999983e+00 2.079283440805999916e+00 5.853826198780000212e+00 3.984817602865000197e+00 5.789469656119000440e+00 5.703175874574999860e+00 3.898616809131000061e+00
7.461063587400000585e-02 1.571606509699999960e-02 2.160597530599999913e-02 3.913150525385999945e+00 7.744064214139999791e+00 7.746819272100000098e-02 7.689932058237999968e+00 3.945819397518000038e+00 7.830370189804000347e+00 3.995431575976999827e+00 3.734908717624000118e+00 2.521628149199999988e-02 4.466659781199999735e-02 1.011498211369999956e-01 3.878910921062999950e+00 3.904458174086999911e+00 7.778613617679000392e+00 3.988952871821000112e+00 7.722758385217000310e+00 3.897099885805999975e+00 3.931712909160999914e+00 3.956226463854000119e+00 4.011777720089000354e+00 3.843601931519999848e+00 2.005353990060999791e+00 2.049808981701000121e+00 1.936270571517000105e+00 5.944505188902000192e+00 1.913643890144999915e+00 2.000336740212000031e+00 1.949502442808999980e+00 5.926774513136000344e+00 1.897811099566999893e+00 5.893995640015999626e+00 5.838703518618999944e+00 2.004504090348000034e+00 1.965037112469000036e+00 1.894618300372999942e+00 5.836803842870000203e+00 5.878341170180999775e+00 1.922941299497999967e+00 5.933094663554999926e+00 1.895824883353999901e+00 5.772933361999999846e+00 5.817196372032999996e+00 5.847225171345000305e+00 5.875193351349000004e+00 5.919631221077000127e+00 7.805036022462999767e+00 1.940572519720000111e+00 1.839423659973000058e+00 3.902973614752999865e+00 2.014732424907999864e+00 2.109151706425000050e+00 4.657669233999999631e-03 5.898231620027999611e+00 2.083485225122999829e+00 3.903215024926999899e+00 5.898519291573999901e+00 1.867214821129000057e+00 7.794703379237000185e+00 2.086987559026999950e+00 6.140021430268999936e+00 3.907201515760999833e+00 1.812504846896000110e+00 5.823133558211999627e+00 2.191987373899999952e-02 5.777370090870999952e+00 5.813384951475000229e+00 3.928089004899999903e+00 5.964214986924000428e+00 5.982576949451000381e+00 1.908912555214999918e+00 1.433199581799999948e-02 1.993532006152000102e+00 5.842560534377000181e+00 6.806763177900000683e-02 2.122380266560000006e+00 1.991892482376999896e+00 3.996498939823999841e+00 2.035342598676999959e+00 5.910316184296999786e+00 3.953188935436000140e+00 1.795278209781000056e+00 1.740778308976999922e+00 5.481696943400000271e-02 5.919309078808000280e+00 5.919739046874999744e+00 4.857790269199999816e-02 5.732818392398000285e+00 2.080356216545999892e+00 3.872862549815000222e+00 5.907385802231999605e+00 5.828426888586999866e+00 3.897779349962000150e+00 5.985807648337999609e+00 2.064184263575000067e+00 2.078666270630999957e+00 2.524786148699999927e-02 5.653937978835999800e+00 1.847722263474999904e+00 4.225731887999999853e-02 1.843040061448999900e+00 5.968908055874999619e+00 1.067373771099999931e-02 5.965866580074999703e+00 6.079441822393000017e+00 7.849289418371999894e+00 1.768649935643000104e+00 1.924302171262999961e+00 3.972160380871999852e+00 5.976480416791999595e+00 2.105620090901000108e+00 3.884618146704999830e+00 2.080671616756000208e+00 5.862645210770000226e+00 3.986213667084999912e+00 5.749605108471000037e+00 5.728104653586999717e+00 3.948171173197000172e+00
8.069979113700000151e-02 2.515284057099999998e-02 1.099840164800000054e-02 3.911736010208000103e+00 7.739539099926999732e+00 7.199858498399999696e-02 7.701245556958999927e+00 3.949218694475999936e+00 7.822118168614999867e+00 3.984858860141000214e+00 3.739932271630999949e+00 1.620403523800000023e-02 5.854280183300000079e-02 9.206200116799999333e-02 3.884714440982000028e+00 3.896874870805000057e+00 7.778865619818000177e+00 3.988772976958999905e+00 7.736254852073000343e+00 3.903597014542000032e+00 3.937985560411000119e+00 3.948278252029000068e+00 4.009936279611999943e+00 3.855399970311999880e+00 1.995602057868000045e+00 2.021848495778999943e+00 1.940480511432999933e+00 5.923744322291000231e+00 1.937267543658000024e+00 1.992543454363999933e+00 1.938828637802999966e+00 5.933582056521999881e+00 1.926051590689999982e+00 5.909338546466999631e+00 5.864503733702999710e+00 1.988071713068999991e+00 1.954239636812000080e+00 1.901791089587000050e+00 5.842239723046000144e+00 5.902880329449000207e+00 1.934137639043000068e+00 5.934661138935999780e+00 1.887917994207999994e+00 5.773729589613999735e+00 5.811211951067999593e+00 5.853074240518999716e+00 5.848671085051999619e+00 5.939796970473000037e+00 7.816541466590999576e+00 1.924161073545999967e+00 1.819589568157000015e+00 3.868542555853999865e+00 1.950606682636000011e+00 2.108670264764000102e+00 7.815294579329999713e+00 5.810549672605000104e+00 2.151512732580000087e+00 3.917525265349000030e+00 5.869796862821000438e+00 1.885971830126000004e+00 2.524265460699999866e-02 2.064329698483999831e+00 6.187503208013000133e+00 3.916695369615999844e+00 1.835876117516999972e+00 5.851041213839000221e+00 2.194670997299999829e-02 5.818462422948999624e+00 5.794498597701999820e+00 3.946943050088000060e+00 5.964667258258000260e+00 6.014570418923000261e+00 1.892242257691000074e+00 2.792100155800000122e-02 1.973913578627999987e+00 5.865082139037999909e+00 4.719627576999999713e-02 2.163921150100000190e+00 2.007645384358000218e+00 3.970698129892999972e+00 2.015845385766999787e+00 5.924325322458999565e+00 3.966867564958000081e+00 1.752994759868000019e+00 1.753049888217000030e+00 3.059550438400000100e-02 5.900153273924000352e+00 5.934434253755999755e+00 7.033971308000000477e-02 5.661935974359000312e+00 2.097802382300999913e+00 3.886772902355000170e+00 5.890342831712000127e+00 5.840440272168000213e+00 3.891245797128000117e+00 6.028227817816000034e+00 2.061024144341999875e+00 2.125118328552999980e+00 5.925319817199999756e-02 5.642942951757000003e+00 1.857817409279000076e+00 7.861197599409000425e+00 1.810824303435000004e+00 5.991002931058999614e+00 1.444800481500000018e-02 5.949706008919999789e+00 6.091014088290999773e+00 4.643234460600000058e-02 1.736374037160000050e+00 1.959692763662000070e+00 3.954787376840000146e+00 6.016150228299999903e+00 2.082482631717999855e+00 3.870001742618999874e+00 2.076631641008999996e+00 5.890444511712000342e+00 3.958534469557999813e+00 5.719986949744000349e+00 5.765552812829000118e+00 3.968814003192000062e+00
8.478316230900000139e-02 3.750742714599999972e-02 7.862520833838999579e+00 3.906251922561999823e+00 7.731776589064000227e+00 6.313829775700000035e-02 7.718767469702999762e+00 3.947958885612000035e+00 7.812210754369999677e+00 3.962900059666000008e+00 3.750189301633000127e+00 5.035321657000000131e-03 6.888142434300000005e-02 7.694796539499999810e-02 3.889344314810999848e+00 3.889361193730000110e+00 7.775476613902999823e+00 3.983893851970000011e+00 7.750981750281000338e+00 3.909417373385000172e+00 3.939327925284000109e+00 3.931833787066000063e+00 3.998890933549000160e+00 3.867427416438999899e+00 1.982817489644999931e+00 2.000127647848000123e+00 1.934568598949000018e+00 5.894112535059999658e+00 1.952430337952000050e+00 1.980203493734999931e+00 1.933537576473999930e+00 5.918388787136000140e+00 1.943494400792999954e+00 5.911208335246000090e+00 5.895134727610000347e+00 1.972782550610999941e+00 1.949240688634999996e+00 1.911924348614000069e+00 5.853779247224999871e+00 5.915324107514000396e+00 1.928444025214000046e+00 5.932660271427000254e+00 1.894927176936999969e+00 5.775021092321000360e+00 5.817367963319999724e+00 5.839064273328999910e+00 5.829754179959000027e+00 5.946996715265999711e+00 7.801804192467000298e+00 1.924729808129999942e+00 1.797907607698000065e+00 3.859800585983999888e+00 1.890388566421000061e+00 2.117774847365000213e+00 7.796329631326000431e+00 5.740382426310000064e+00 2.217052180170000053e+00 3.927330431510000164e+00 5.847099714908999601e+00 1.910793159480999925e+00 3.871939870999999839e-02 2.037487926773000169e+00 6.195966249556000172e+00 3.905428338871999916e+00 1.870161964460999915e+00 5.849336865474000113e+00 7.805817653465999761e+00 5.831610364271000435e+00 5.774290922486000177e+00 3.961158756126000213e+00 5.963797161487000231e+00 6.050142494995999876e+00 1.887706687389000049e+00 3.552302065599999975e-02 1.957930797348000018e+00 5.885384919606000409e+00 7.816565544981999736e+00 2.182520820623000013e+00 2.004152454020000196e+00 3.924637707731000180e+00 2.004855841393000215e+00 5.911302078999000287e+00 3.950215701284999881e+00 1.737202826849999937e+00 1.803460755856999942e+00 7.822475311700999967e+00 5.876228336995000134e+00 5.970059533649999750e+00 5.159543464800000340e-02 5.611806448800000346e+00 2.095816270667000047e+00 3.955808050391000030e+00 5.856966995033999979e+00 5.844931409583000281e+00 3.932793972120999904e+00 6.062410302205999635e+00 2.059934128664000053e+00 2.123224043711000153e+00 8.284768240499999770e-02 5.660918157428000086e+00 1.854008610526000078e+00 7.811388145160999663e+00 1.778399460031000023e+00 5.980670099349000068e+00 2.694416655299999852e-02 5.954423035971999845e+00 6.091188955828999774e+00 6.845375488299999811e-02 1.710250070255000088e+00 2.006787650748000029e+00 3.945264462013000184e+00 6.049474330057999616e+00 2.093675424749999792e+00 3.901145952925999971e+00 2.071021170773000186e+00 5.928979588426000369e+00 3.928490219930000027e+00 5.703820100330999843e+00 5.785713359325000305e+00 3.977825725111999944e+00