-2.978489230160000079e+04
-2.978433198479999919e+04
-2.978411811410000155e+04
-2.978417297459999827e+04
-2.978410122820000106e+04
-2.978384079289999863e+04
-2.978410566399999880e+04
-2.978403158009999970e+04
-2.978384969049999927e+04
-2.978379369180000140e+04
-2.978404536379999990e+04
-2.978401886730000115e+04
-2.978388759930000015e+04
-2.978372986419999870e+04
-2.978375219550000111e+04
-2.978354882880000150e+04
-2.978299855250000110e+04
-2.978287587640000129e+04
-2.978288594519999970e+04
-2.978302971859999889e+04
-2.978295184359999985e+04
-2.978261377609999909e+04
-2.978231021619999956e+04
-2.978222792610000033e+04
-2.978214754689999972e+04
-2.978238445090000096e+04
-2.978270088350000151e+04
-2.978252847580000162e+04
-2.978208684240000002e+04
-2.978241437990000122e+04
-2.978284292160000041e+04
-2.978273429329999999e+04
-2.978324651580000136e+04
-2.978321417360000123e+04
-2.978286161200000060e+04
-2.978307365539999955e+04
-2.978360462810000172e+04
-2.978347066110000014e+04
-2.978347198500000013e+04
-2.978358896159999858e+04
-2.978376032480000140e+04
-2.978382345459999851e+04
-2.978412901639999836e+04
-2.978412718440000026e+04
-2.978409861939999973e+04
-2.978403302339999937e+04
-2.978420638319999853e+04
-2.978420543929999985e+04
-2.978420504749999964e+04
-2.978405369599999904e+04
-2.978418037289999847e+04
-2.978419469770000069e+04
-2.978424682279999979e+04
-2.978416329229999974e+04
-2.978414305109999987e+04
-2.978413002540000161e+04
-2.978419834840000112e+04
-2.978424066959999982e+04
-2.978428804039999886e+04
-2.978402207560000170e+04
-2.978378944920000140e+04
-2.978384122389999902e+04
-2.978392035240000041e+04
-2.978363961829999971e+04
-2.978351243679999970e+04
-2.978361174329999994e+04
-2.978341983940000136e+04
-2.978311987759999829e+04
-2.978317707370000062e+04
-2.978322463140000036e+04
-2.978281367740000132e+04
-2.978257201369999893e+04
-2.978298486160000175e+04
-2.978291561699999875e+04
-2.978240868830000181e+04
-2.978218400670000119e+04
-2.978228751270000066e+04
-2.978249604969999928e+04
-2.978256251319999865e+04
-2.978271102619999874e+04
-2.978271998660000099e+04
-2.978247281909999947e+04
-2.978248952429999918e+04
-2.978297901550000097e+04
-2.978309826539999995e+04
-2.978320385679999890e+04
-2.978334002550000150e+04
-2.978353835590000017e+04
-2.978361718499999915e+04
-2.978364754059999905e+04
-2.978382307180000134e+04
-2.978395677910000086e+04
-2.978395977000000130e+04
-2.978395482239999910e+04
-2.978408584569999948e+04
-2.978408376140000109e+04
-2.978408825119999892e+04
-2.978411209139999846e+04
-2.978421510950000084e+04
-2.978417933320000157e+04
-2.978409310800000094e+04
-2.978413088889999926e+04
-2.978415906739999991e+04
-2.978421807640000043e+04
-2.978424659450000036e+04
-2.978427737939999861e+04
-2.978415416940000068e+04
-2.978411174200000096e+04
-2.978409095119999984e+04
-2.978403943520000030e+04
-2.978394457329999932e+04
-2.978384098610000001e+04
-2.978372083209999983e+04
-2.978367195210000136e+04
-2.978358093070000177e+04
-2.978370873610000126e+04
-2.978345167560000118e+04
-2.978343303690000175e+04
-2.978326891170000090e+04
-2.978308057819999885e+04
-2.978295825390000027e+04
-2.978286118269999861e+04
-2.978220400510000036e+04
-2.978280014790000132e+04
-2.978259321510000154e+04
-2.978232079470000099e+04
-2.978212551900000108e+04
-2.978228991129999849e+04
-2.978196350950000124e+04
-2.978200435940000170e+04
-2.978271697090000089e+04
-2.978265734900000098e+04
-2.978266283359999943e+04
-2.978268598109999948e+04
-2.978297789610000109e+04
-2.978319401940000171e+04
-2.978334165800000119e+04
-2.978323128770000039e+04
-2.978328814580000108e+04
-2.978350303429999985e+04
-2.978357279449999987e+04
-2.978369172679999974e+04
-2.978379615950000152e+04
-2.978393150949999836e+04
-2.978403536259999964e+04
-2.978411493089999931e+04
-2.978420608889999858e+04
-2.978411474680000174e+04
-2.978398426489999838e+04
-2.978416859770000156e+04
-2.978421507349999956e+04
-2.978417517479999879e+04
-2.978412283160000152e+04
-2.978420562169999903e+04
-2.978411574309999924e+04
-2.978418622659999892e+04
-2.978423342730000149e+04
-2.978410912100000132e+04
-2.978398352339999838e+04
-2.978402940630000012e+04
-2.978407924160000039e+04
-2.978403140759999951e+04
-2.978408116969999901e+04
-2.978392809399999896e+04
-2.978373312280000027e+04
-2.978356029639999906e+04
-2.978344177839999975e+04
-2.978343570600000021e+04
-2.978339504959999977e+04
-2.978301582730000155e+04
-2.978300950939999893e+04
-2.978303169609999895e+04
-2.978288033930000165e+04
-2.978257382960000177e+04
-2.978281399260000035e+04
-2.978272902529999919e+04
-2.978275591200000054e+04
-2.978233319530000153e+04
-2.978217968499999915e+04
-2.978212168029999884e+04
-2.978210683900000004e+04
-2.978245143000000098e+04
-2.978219733350000024e+04
-2.978264893890000167e+04
-2.978310172809999858e+04
-2.978326974350000091e+04
-2.978311643969999932e+04
-2.978328850220000095e+04
-2.978358452279999983e+04
-2.978340345929999967e+04
-2.978351774849999856e+04
-2.978381331449999925e+04
-2.978378402959999949e+04
-2.978363340020000032e+04
-2.978379336960000001e+04
-2.978377535830000124e+04
-2.978393387609999991e+04
-2.978413236170000164e+04
-2.978424220799999966e+04
-2.978409970070000054e+04
-2.978413643880000018e+04
-2.978409882769999967e+04
-2.978418638550000105e+04
-2.978419011239999963e+04
-2.978423786560000008e+04
-2.978414357910000035e+04
-2.978402839020000101e+04
-2.978405414020000171e+04
-2.978420164529999965e+04
-2.978411019590000069e+04
-2.978400368589999925e+04
-2.978390315040000132e+04
-2.978392817930000092e+04
-2.978381679449999865e+04
-2.978388677319999988e+04
-2.978379963219999991e+04
-2.978376819279999836e+04
-2.978347210830000040e+04
-2.978338329230000090e+04
-2.978331304989999990e+04
-2.978330607909999890e+04
-2.978301358120000077e+04
-2.978277312190000157e+04
-2.978292518140000175e+04
-2.978238611260000107e+04
-2.978227156990000003e+04
-2.978252148999999918e+04
-2.978290286009999909e+04
-2.978267245280000134e+04
-2.978267627889999858e+04
-2.978253308639999887e+04
-2.978212390460000097e+04
-2.978259056399999827e+04
-2.978311358130000008e+04
-2.978328309789999912e+04
-2.978281977190000180e+04
-2.978303152430000046e+04
-2.978320917130000089e+04
-2.978331346190000113e+04
-2.978316790929999843e+04
-2.978336504150000110e+04
-2.978362530519999927e+04
-2.978379071069999918e+04
-2.978380219569999826e+04
-2.978407907899999918e+04
-2.978414621859999897e+04
-2.978397086629999831e+04
-2.978400774729999830e+04
-2.978416730969999844e+04
-2.978421577160000015e+04
-2.978401578969999900e+04
-2.978411781300000075e+04
-2.978411869319999823e+04
-2.978411287129999982e+04
-2.978411001290000058e+04
-2.978417189399999916e+04
-2.978414865229999850e+04
-2.978408927689999837e+04
-2.978420856899999853e+04
-2.978428378660000089e+04
-2.978413489960000152e+04
-2.978404978850000043e+04
-2.978404958099999931e+04
-2.978401352350000161e+04
-2.978379421899999943e+04
-2.978365915339999992e+04
-2.978352314739999929e+04
-2.978368036719999873e+04
-2.978344529519999924e+04
-2.978317831930000102e+04
-2.978323257219999869e+04
-2.978300915940000050e+04
-2.978285917939999854e+04
-2.978292486049999934e+04
-2.978336982419999913e+04
-2.978281906700000036e+04
-2.978259496199999921e+04
-2.978246071440000014e+04
-2.978238827110000057e+04
-2.978250085060000129e+04
-2.978250029110000105e+04
-2.978284715420000066e+04
-2.978239244319999852e+04
-2.978248660949999976e+04
-2.978268052389999866e+04
-2.978301092340000105e+04
-2.978256263459999900e+04
-2.978307574200000090e+04
-2.978322580430000016e+04
-2.978325625450000007e+04
-2.978330851360000088e+04
-2.978362880890000088e+04
-2.978362262009999904e+04
-2.978376571770000010e+04
-2.978392854499999885e+04
-2.978401137060000110e+04
-2.978395101349999823e+04
-2.978391331630000059e+04
-2.978385890609999842e+04
-2.978391602399999829e+04
