-1.408029245599999937e-02 1.804752172399999924e-02 -3.585500907699999684e-02 5.733156540000000113e-03 -1.797362577999999864e-02 -5.885000750000000252e-02 1.115988442340000025e-01 -6.736284672999999848e-03 2.447790971700000012e-02 -9.221859643499999426e-02 5.442149153499999809e-02 -7.623781165999999818e-03 -6.825781749199999471e-02 -5.250658273099999968e-02 2.930872576899999984e-02 8.064723320000000140e-02 -3.765222144500000173e-02 3.516449714099999929e-02 4.716345695199999910e-02 2.608459672999999951e-02 -4.779134845800000336e-02 -2.169216166399999882e-02 2.837880529400000143e-02 4.164467314399999953e-02 -1.085035209010000029e-01 1.176975824679999949e-01 -1.047337538340000068e-01 6.850294726800000567e-02 -1.127224702079999974e-01 -7.930093614199999752e-02 6.131136994900000109e-02 -1.642612020139999907e-01 -1.706979511379999870e-01 -8.641236191999999983e-02 1.151783747670000052e-01 1.536359189959999871e-01 1.196550965969999936e-01 4.377900342299999997e-02 1.057007720959999980e-01 -1.053025121519999968e-01 -1.803941448270000025e-01 7.525867681600000025e-02 8.947539677400000169e-02 -2.420395042699999971e-02 1.923695600320000088e-01 -7.678035933799999546e-02 1.722842362660000071e-01 -1.672544324909999991e-01 -1.528197841860000072e-01 -4.296327540099999925e-02 -2.902391347700000040e-02 2.084307255110000034e-01 4.141356407900000092e-02 1.295806239699999994e-02 8.078314378400000551e-02 3.725251927900000148e-02 4.520335994300000299e-02 -1.556376080569999987e-01 -2.455124054000000153e-03 6.422801893099999715e-02 -8.081837262999999952e-03 3.534043375700000184e-02 6.380408360000000036e-03 -2.119708584240000138e-01 -5.713363141399999817e-02 -3.924568041800000073e-02 1.038231811689999950e-01 -7.247483759900000266e-02 4.316382142599999722e-02 -2.201906012089999976e-01 -3.700230368600000014e-02 -1.552093210000000023e-04 -3.656591289999999717e-02 -1.402886328440000052e-01 2.973633589500000035e-02 -5.427830179999999522e-04 2.270308558320000003e-01 -6.745736135400000333e-02 1.110909052200000080e-02 4.312731067500000237e-02 5.214808549100000135e-02 5.137124851500000228e-02 -3.233945262490000028e-01 5.637761024099999935e-02 -2.966319664299999978e-02 2.276769070180000021e-01 -4.764234468499999736e-02 7.160580547099999749e-02 1.189662349210000025e-01 9.387726385200000079e-02 3.432740045600000262e-02 -3.812768465500000065e-02 -1.004259831999999991e-01 1.442128758619999895e-01 -8.503643485900000409e-02 -8.307782743500000122e-02 -4.718540784800000221e-02 5.609255437000000045e-03 -2.397191485909999920e-01 4.086204841600000331e-02 1.126580967799999979e-02 1.964596330370000088e-01 -3.044508348900000147e-02 8.413106786200000298e-02 1.092589488410000004e-01 5.491543689100000097e-02 6.337372090699999738e-02 -1.668560882599999864e-02 3.147542426299999863e-02 -4.960663783799999782e-02 2.344131679110000033e-01 3.378357993400000342e-02 1.375830317260000046e-01 -2.673944504299999997e-02 -1.664293433000000070e-03 -4.504399455699999860e-02 -6.463734279100000202e-02 1.722752652300000090e-02 -1.186647581139999991e-01 -2.148483650899999930e-01
-4.205193740999999680e-02 1.330435944900000000e-01 -1.999230156940000058e-01 4.206837855999999778e-03 -7.024621538299999357e-02 -2.996563704910000236e-01 5.981072751539999732e-01 -7.054821329799999818e-02 1.158919423710000063e-01 -5.704654014279999519e-01 2.787279850339999809e-01 9.126936143999999848e-03 -2.998855306320000191e-01 -2.568858138480000219e-01 1.633328611429999966e-01 3.641234035409999792e-01 -1.448083912320000111e-01 1.628961402859999963e-01 2.918620614299999860e-01 9.695492721699999761e-02 -2.247276117179999866e-01 -1.338719802130000081e-01 1.071731256790000031e-01 2.216423208730000094e-01 -6.577937565689999655e-01 5.555781696930000013e-01 -4.354851949829999791e-01 3.587075303660000047e-01 -5.618852118320000200e-01 -4.128793735449999835e-01 3.019948182389999847e-01 -8.338599064920000359e-01 -7.948111253730000270e-01 -4.117330469159999895e-01 8.568889760669999855e-01 7.450582625730000075e-01 5.542580530220000412e-01 2.665313645440000045e-01 4.185929384959999888e-01 -4.742327569550000010e-01 -8.931069244799999529e-01 3.530159710599999889e-01 3.328032983499999986e-01 -1.190006913720000059e-01 9.824766411259999721e-01 -3.425803965679999896e-01 7.741865440549999811e-01 -8.438760049900000393e-01 -4.224065638480000162e-01 -1.833565797599999991e-01 -1.456064457450000071e-01 7.686635979020000065e-01 1.527929305830000029e-01 4.971151039800000143e-02 1.471858435879999927e-01 8.670374952400000668e-02 2.524290960019999752e-01 -5.370989831089999500e-01 2.018829168600000043e-02 3.231855222089999868e-01 -2.181869238709999992e-01 1.668974229909999940e-01 6.278181769099999698e-02 -8.071198648290000000e-01 -2.933410813280000196e-01 -1.986348373909999909e-01 3.558128442410000147e-01 -2.630616614619999960e-01 2.392521451959999934e-01 -8.624830379869999897e-01 -2.704347568059999873e-01 2.574302290000000134e-04 -2.709014384880000237e-01 -5.189679743630000175e-01 1.704474598459999879e-01 4.477900987399999894e-02 7.406822264860000171e-01 -3.603962374749999920e-01 1.265470352749999972e-01 -1.023176734200000049e-02 2.558933188149999927e-01 2.740562954040000054e-01 -1.463304692811000063e+00 3.086790521900000250e-01 -1.184894395059999939e-01 9.145537685169999875e-01 -2.540179543000000151e-01 2.688151471699999906e-01 4.149248336610000254e-01 4.847710499690000008e-01 1.237353246699999937e-01 -3.381990551000000050e-03 -4.985086700909999724e-01 8.582759939749999845e-01 -1.496709512169999978e-01 -5.098513561099999869e-01 -2.775051720610000050e-01 1.040231020799999989e-01 -8.426795005489999824e-01 2.055089810390000049e-01 5.425249711800000235e-02 6.846027918789999722e-01 -1.530022946300000075e-01 4.735979656489999745e-01 4.345052549249999729e-01 2.827549072719999779e-01 3.103550853670000165e-01 -1.674403287619999903e-01 1.340952626659999980e-01 -2.376040629449999997e-01 7.707469223499999744e-01 1.422656745829999902e-01 6.392483598460000360e-01 1.544137364660000122e-01 1.180936454999999968e-02 -1.915396984759999977e-01 -2.372620784139999883e-01 4.943996484999999691e-02 -6.120683352900000429e-01 -9.379550166040000470e-01
1.248622182499999934e-02 2.956397011269999986e-01 -3.465829984680000031e-01 -9.146384552599999551e-02 1.347861277699999999e-02 -4.319671174779999845e-01 8.286930229159999994e-01 -2.241731742280000106e-01 1.172641568440000032e-01 -8.515943626719999493e-01 3.716247135049999817e-01 3.765083621700000133e-02 -2.120647227659999967e-01 -3.126267161280000262e-01 2.760703430909999812e-01 2.942676539710000205e-01 -6.116436725399999885e-02 1.415089824899999904e-01 4.633579372109999928e-01 1.138304961499999983e-02 -2.560620536680000003e-01 -2.177373768230000117e-01 -9.771238499999999536e-05 3.358101450720000214e-01 -7.832565034220000388e-01 5.081066210919999993e-01 -3.867098188049999941e-01 3.473073823460000042e-01 -5.748473054299999691e-02 -6.102583570949999814e-01 3.047779792259999732e-01 -9.798947320249999926e-01 -7.259085264489999467e-01 -4.340313864940000266e-01 6.141756439500000164e-01 9.414670105310000148e-01 4.796666979490000204e-01 2.797715429150000044e-01 4.722768565939999830e-01 -3.634414747570000048e-01 -9.654213976909999939e-01 3.718093869610000213e-01 2.576424581080000165e-01 -4.855383795300000083e-02 1.018476083703000024e+00 -3.087956209309999922e-01 7.758131690480000175e-01 -1.095191687165000038e+00 4.331989473019999815e-01 -3.865119558399999766e-01 -2.000505473889999941e-01 -9.818328644899999846e-02 6.679671411899999744e-02 -3.129041481699999794e-02 -4.082517853140000264e-01 -2.778400593500000154e-02 3.549107476450000243e-01 1.877868633400000056e-02 -3.895454498599999760e-02 3.417333547890000212e-01 -6.346899700610000306e-01 2.838549178320000088e-01 1.939735279310000060e-01 -3.261379288899999840e-01 -3.968454423089999850e-01 -1.132711130810000050e-01 -3.694993257499999684e-02 -1.635360173579999965e-01 3.081817087939999755e-01 -3.369166571150000178e-01 -3.635046922790000079e-01 3.285125729999999970e-03 -3.574289445559999945e-01 -2.496950839499999936e-02 1.750224750499999871e-01 -8.952918695999999635e-03 -3.049408424639999948e-01 -4.037052397249999980e-01 2.407408870590000138e-01 -5.351847654860000247e-01 2.486841360010000057e-01 3.510892625559999813e-01 -3.832964195799999918e-01 2.782971491960000154e-01 -2.221252268510000016e-01 4.104929983810000071e-01 -3.316603192670000144e-01 2.012553178890000016e-01 -1.145833621320000023e-01 5.132273105950000414e-01 2.145457392169999866e-01 5.635287612110000399e-01 -5.423742935259999731e-01 1.143193446991999984e+00 3.186595238630000049e-01 -6.458124033269999620e-01 -3.183013867400000252e-01 2.934432155069999770e-01 -1.269923229559999922e-01 1.639684343879999895e-01 7.498093497900000515e-02 2.341905933310000076e-01 -2.060977893060000066e-01 6.188503636909999939e-01 2.809434799889999890e-01 1.959617256460000068e-01 4.084747685940000039e-01 -3.272102694360000119e-01 1.708296653939999910e-01 -3.049665436419999875e-01 -1.001879048100000058e-01 1.695522328600000128e-01 6.912911259339999948e-01 7.462163371969999792e-01 -3.581738374300000305e-02 -2.694047882980000197e-01 7.057274093899999767e-02 -3.907519550199999719e-02 -6.364668212299999794e-01 -7.863371012280000460e-01
4.457856911900000274e-02 3.486116713180000271e-01 -4.134274381470000037e-01 -1.861827595860000018e-01 1.124430821140000036e-01 -4.403388831969999861e-01 7.330617587790000389e-01 -2.881769808699999880e-01 4.431534229000000380e-03 -7.377469356189999550e-01 4.652442122050000073e-01 -6.379971327700000028e-02 1.183325740719999991e-01 -3.445868125039999730e-01 3.472994259350000168e-01 -6.382851116599999597e-02 6.926181337799999782e-02 -3.673578649099999704e-02 5.278243787180000313e-01 -7.032993354000000030e-02 -1.148814196360000012e-01 -2.562738310739999803e-01 -1.823687591110000061e-01 4.305283982149999966e-01 -6.782197033060000102e-01 -2.855105995600000154e-02 -4.890035973000000057e-03 1.231322760030000019e-01 9.905257134320000212e-01 -3.704366649529999833e-01 -2.724552086300000009e-02 -5.227718593429999672e-01 9.129700575099999882e-02 -1.066102621390000033e-01 -7.858987336200000395e-02 5.236057749289999563e-01 -1.337583685710000136e-01 1.796667137980000051e-01 2.550916509769999840e-01 1.891058961540000027e-01 -2.668353133149999890e-01 9.319179975800000182e-02 -1.171947528859999949e-01 3.352780453399999833e-02 2.629265052140000170e-01 1.225452772489999953e-01 1.882978383080000095e-01 -6.192532455110000278e-01 7.990673175529999783e-01 -5.700761616820000377e-01 -1.479437411560000082e-01 -6.645265368920000304e-01 -2.001802084150000050e-01 -1.654113584040000084e-01 -4.615096958420000228e-01 -2.614260274529999761e-01 3.422696851800000051e-01 3.918513981269999835e-01 -2.175781920500000077e-01 1.945461813140000051e-01 -4.258907145390000148e-01 2.815823340970000088e-01 3.458256825229999998e-01 5.142000818749999924e-01 -2.525881752970000060e-01 1.601940196709999986e-01 -3.669478732229999873e-01 1.216933930450000007e-01 2.275453861450000004e-01 4.435271692480000083e-01 -2.251140475329999890e-01 2.430175391300000085e-02 -2.726037710499999989e-01 2.461050034929999908e-01 6.534226952999999845e-03 -1.071080077260000013e-01 -1.120920692489000059e+00 -1.542731419570000095e-01 2.676222132209999938e-01 -4.787729223619999752e-01 -1.609682934299999993e-02 3.416441310330000092e-01 9.241908033979999715e-01 -7.271659037999999610e-03 -2.767350656679999910e-01 -2.611835356150000176e-01 -2.611529340720000203e-01 -5.260569356500000016e-02 -7.000694185029999739e-01 2.092664974869999917e-01 2.630808592609999996e-01 6.879959727290000382e-01 -3.103156728450000013e-01 7.528577912620000312e-01 4.599597709280000002e-01 -3.789694783620000118e-01 -2.326695279500000102e-01 5.057062373880000239e-01 4.507131728139999738e-01 -7.603135274599999438e-02 7.803293249999999903e-02 -1.624508484839999878e-01 -1.773625001989999894e-01 5.092517136999999972e-01 -3.931841275999999746e-02 -1.163831035339999986e-01 3.089160040860000067e-01 -3.084324886859999837e-01 5.832441586099999797e-02 -2.064820177349999952e-01 -7.370637076980000035e-01 1.235792732240000025e-01 1.929960320140000074e-01 3.910917818119999945e-01 -8.169902352199999440e-02 -2.457922412490000097e-01 3.979911653700000107e-01 -1.952018690929999967e-01 -1.816148140789999865e-01 -6.188188199000000354e-03
-4.301426362699999756e-02 1.867477872149999885e-01 -3.530368198839999860e-01 -1.454697893749999915e-01 8.678636093800000395e-02 -3.674532587580000009e-01 4.607194497129999955e-01 -1.174885361829999947e-01 -1.768040311730000036e-01 -4.200589578009999991e-01 6.530406272800000078e-01 -2.415208035770000095e-01 4.215438299540000266e-01 -4.970838385860000264e-01 3.298419156729999746e-01 -4.200253166869999943e-01 7.848953823300000576e-02 -2.810591538150000179e-01 5.517523158539999750e-01 4.998915483599999932e-02 1.154544958859999998e-01 -2.796419421779999803e-01 -2.957133719069999778e-01 5.351761227460000159e-01 -6.229519298819999884e-01 -8.822903514650000112e-01 5.302565749809999840e-01 -1.138821013580000041e-01 1.064686728752999967e+00 -5.868674710999999961e-02 -3.628513259450000250e-01 2.121384011180000029e-01 1.201038201248000092e+00 3.535004052199999802e-01 -1.118955315190000022e-01 -4.221689020639999845e-01 -5.911972322259999579e-01 -1.424827352800000016e-02 -2.327568047199999879e-01 6.160862287689999883e-01 5.251977746039999673e-01 -2.007742065839999979e-01 -5.147153461740000546e-01 2.896098957279999997e-01 -6.238816576290000526e-01 6.292358983369999992e-01 -6.757651352569999936e-01 2.618131481409999850e-01 -1.582476721959999999e-01 -6.002126658299999917e-01 -1.186090780899999933e-02 9.457611872700000255e-02 -4.149681253049999907e-01 -2.466141078849999890e-01 2.950642616470000035e-01 -4.916946543249999801e-01 2.070505694900000027e-01 -1.848241663259999890e-01 -4.096173298099999860e-01 1.808020230500000103e-02 5.046243271210000270e-01 1.047529775369999971e-01 3.870620938189999749e-01 6.070678662109999513e-01 1.258481870199999915e-02 4.395359974279999804e-01 3.976114507000000353e-03 3.340975745049999945e-01 1.486576830000000023e-02 4.887289134119999767e-01 7.891224902999999929e-03 5.714083701000000071e-02 -6.970816294999999940e-02 -2.282365844769999874e-01 -2.223992269020000079e-01 -8.578007428599999928e-02 2.187259775169999865e-01 1.547466627090000046e-01 1.213735428600000027e-01 4.911244605669999874e-01 -2.987300855150000212e-01 2.735494529959999754e-01 3.752793414110000003e-01 -3.211334196969999888e-01 -2.037018770340000007e-01 -1.085291974629999934e-01 -1.192283083490000006e-01 -1.795412461589999953e-01 -1.193051802890000013e-01 -2.512116400530000071e-01 2.754787435400000151e-01 -2.693826197490000185e-01 -5.345136737999999985e-03 2.713643524499999987e-02 -1.243262911990000025e-01 8.130037528300000649e-02 -1.005536765660000054e-01 5.744305817629999922e-01 -1.121080204170000066e-01 -2.359787235320000010e-01 1.142853296119999973e-01 -1.186440469500000053e-02 -9.452646560100000372e-02 2.095023177439999940e-01 -2.867685453309999910e-01 -4.251439402239999832e-01 3.953474372400000297e-02 -7.099934304999999668e-03 -8.548705753599999957e-02 4.348956882000000121e-03 -2.216098790399999990e-02 2.348072276299999900e-02 -4.762017052399999950e-01 -7.379397584260000142e-01 -1.120544629739999992e-01 -1.045503882809999951e-01 2.866846781419999934e-01 -2.985388962380000066e-01 3.082652068399999723e-01 9.925592261810000094e-01
-1.671715990160000109e-01 -5.717013859999999555e-04 -2.714144052579999800e-01 -3.165122523000000326e-02 4.235275839399999659e-02 -3.345296225470000273e-01 3.289089124799999819e-01 9.392471458100000448e-02 -3.114632640130000074e-01 -2.649519141309999992e-01 8.029787824970000543e-01 -3.767362675989999743e-01 4.541367154400000050e-01 -6.586890375589999902e-01 2.861773350919999959e-01 -4.933427084099999971e-01 5.016431756399999942e-02 -3.992793164099999736e-01 5.588302539689999904e-01 2.614828395570000241e-01 3.014749410140000196e-01 -2.991842719150000218e-01 -3.919183792520000154e-01 6.249787488450000428e-01 -2.966829808709999794e-01 -1.315763057887999965e+00 6.897539325799999510e-01 -4.885840666960000189e-01 5.474267792939999655e-01 5.585810509999999951e-02 -4.338621721170000112e-01 5.907484915180000185e-01 1.485389560538000087e+00 5.239551615280000352e-01 2.695150962260000060e-01 -8.902884919819999965e-01 -4.966442084370000232e-01 -1.353236300700000061e-01 -3.853770165829999983e-01 6.097107139180000246e-01 8.022159381989999449e-01 -3.493796092570000122e-01 -5.179140909880000088e-01 5.769159396799999895e-01 -8.113255859369999934e-01 6.648953114219999794e-01 -1.216734994240000090e+00 7.180869123730000414e-01 -6.968225521580000414e-01 -3.419971210039999820e-01 7.785491531400000331e-02 4.376462593589999783e-01 -4.097926548079999787e-01 -2.109366141569999908e-01 6.251096719359999776e-01 -5.298585337600000278e-01 1.191285082310000049e-01 -5.139521213140000322e-01 -4.784021223059999883e-01 -3.641693701899999941e-02 1.131961606201999926e+00 -1.515718690570000138e-01 2.458597077780000084e-01 7.960127383199999684e-02 2.048641455799999900e-01 4.771835485099999996e-01 5.798577489599999746e-01 3.459963206039999850e-01 -1.714760288340000105e-01 -2.990685299400000149e-02 1.752668975040000132e-01 7.732244086799999749e-02 1.392133447670000079e-01 -3.831789863360000048e-01 -3.111993757259999827e-01 -7.347398679999999661e-03 1.151319670824000108e+00 3.203739235699999965e-01 -8.009758199699999748e-02 7.831241395450000420e-01 -3.674141476069999745e-01 1.949327264630000001e-01 -4.642019646100000174e-01 -4.367326994499999837e-01 -2.005457073400000040e-02 2.189542075400000010e-01 -2.726243545099999929e-02 -6.305691677499999925e-02 9.889106297940000179e-01 -5.846141066419999754e-01 2.062250232589999954e-01 -1.080565275419999915e+00 2.013479585290000040e-01 -5.055465526789999497e-01 -7.582724589570000173e-01 4.268283462999999944e-01 -1.636190134199999938e-02 3.767505722439999927e-01 -4.916491120250000013e-01 -1.362097510730000127e-01 1.827243660979999962e-01 -5.523163506699999697e-02 -1.290203518599999932e-02 -5.721570173400000042e-02 -2.388298591219999989e-01 -4.568371890490000031e-01 -2.365452686439999952e-01 6.418768544289999989e-01 -1.136824530139999984e-01 2.531708978760000006e-01 5.308076660389999812e-01 -8.355800840000000363e-04 -8.116929115340000278e-01 -1.060377264068999903e+00 -1.349838618560000036e-01 1.212629386619999972e-01 -1.182774468799999978e-01 -2.563981667899999928e-01 5.822252247850000506e-01 9.599078365280000469e-01
-2.082115664770000096e-01 1.790306726499999931e-02 -2.526793863060000089e-01 1.604403207199999945e-02 1.208691348520000014e-01 -3.618040913009999970e-01 5.302875903610000385e-01 6.972218012299999379e-02 -2.681929199390000185e-01 -4.027159532929999730e-01 7.837197585420000445e-01 -4.241097235349999828e-01 2.145642485500000030e-01 -6.439839338349999665e-01 2.675477369320000132e-01 -2.703240436059999863e-01 1.339309298380000068e-01 -3.289711821840000106e-01 5.847916182800000362e-01 2.957920767630000114e-01 3.193398881930000210e-01 -3.744907681790000109e-01 -5.553913787900000010e-01 6.277957196910000093e-01 2.036826008519999898e-01 -8.428852631030000486e-01 1.966946911649999907e-01 -8.727707596039999682e-01 1.520618526729999864e-01 3.141253748399999712e-02 -2.539899027740000204e-01 3.438997650310000043e-01 6.485699237369999537e-01 2.910294457959999859e-01 5.017549656049999918e-01 -6.355218625290000034e-01 -2.277881979830000125e-01 2.184538430040000034e-01 1.041833600009999944e-01 3.941859279520000259e-01 6.034360846140000012e-01 -2.428929102010000118e-01 -4.617963905700000343e-02 1.860472620760000029e-01 -1.068445121330000025e-01 1.549723767389999951e-01 -7.822440790119999932e-01 6.965716474369999522e-01 2.204682375200000058e-02 8.793428163100000527e-02 7.900474787399999754e-02 -3.286875811539999859e-01 -1.949408650460000003e-01 -8.714457376499999686e-02 -7.699875949699999667e-02 -3.425815338550000089e-01 1.279610636869999984e-01 1.622586994309999919e-01 -3.287527377439999898e-01 1.027551535749999939e-01 6.469781617759999826e-01 -3.032943281380000022e-01 -1.007877975459999936e-01 -1.477244325579999962e-01 2.472046157699999969e-01 1.994302764270000083e-01 3.054066157909999801e-01 1.811368471029999871e-01 -1.957113349210000131e-01 -1.419033551389999870e-01 2.203007146909999880e-01 7.894758393799999885e-02 2.738051887540000062e-01 1.995999878799999960e-01 -1.743674679270000027e-01 3.218551249700000311e-02 4.196039945499999840e-02 2.751438121600000009e-01 -2.508258572729999969e-01 -3.368991918129999874e-01 -2.160467099779999900e-01 5.720200372599999750e-02 -6.050925616100000237e-02 -1.705381322520000131e-01 2.163142625270000063e-01 -2.110678113829999869e-01 3.290500655000000007e-03 1.817866911350000114e-01 5.776956129100000448e-01 -5.329676163180000481e-01 3.682398532100000094e-02 -2.673701592950000205e-01 1.117621094350000066e-01 -5.454062895629999685e-01 -4.184864416640000084e-01 4.540271705269999791e-01 -3.964660168000000255e-03 -3.969439083199999968e-02 2.944473711849999731e-01 1.153990902119999967e-01 1.704434007760000092e-01 -5.171972070170000046e-01 9.370689451999999683e-03 -2.409903403499999985e-01 6.159064149500000085e-02 -2.029422628510000048e-01 -3.365748862360000149e-01 8.750960434119999798e-01 -5.821897317400000216e-02 4.027363464300000029e-01 -7.404312418000000284e-02 8.801178580599999801e-02 -5.471286968749999868e-01 -1.912721012040000113e-01 -1.229600488729999941e-01 3.325123123300000039e-01 -4.992561943100000121e-01 -1.044299560999999979e-03 5.636798547719999997e-01 -1.752231314630000036e-01
-1.870793525189999862e-01 1.826733785140000066e-01 -2.338416811759999880e-01 -2.786960315800000171e-02 2.545343773980000002e-01 -3.514465255429999879e-01 8.804076208869999753e-01 -1.143337304909999991e-01 3.205368124099999827e-02 -6.356875605339999957e-01 6.915289967080000544e-01 -3.353498819180000257e-01 -1.107654502699999960e-01 -5.169159961770000145e-01 2.069040005630000123e-01 4.358314926100000097e-02 2.448294612420000016e-01 -2.091918684000000084e-01 6.286048185570000113e-01 1.897931706769999949e-01 8.418081273300000167e-02 -4.816341835210000144e-01 -6.470350197080000365e-01 4.673103530489999824e-01 3.211758600560000176e-01 -1.024564318360000059e-01 -4.160929794270000204e-01 -7.722093238370000279e-01 -1.178938460979999936e-01 -2.414950541910000081e-01 1.221845238820000040e-01 -3.129090057319999785e-01 -2.354114721399999943e-01 -1.263089659440000123e-01 4.696378939099999927e-01 -3.727604118119999810e-01 1.071072567039999951e-01 5.035116706050000168e-01 6.531043957390000321e-01 -3.585672678699999838e-02 -2.080138359099999862e-02 9.550504827200000102e-02 7.103850796309999494e-01 -1.214989199600000069e-01 6.928993996109999998e-01 -5.709254116699999937e-01 6.990732955299999718e-02 2.989027361120000226e-01 4.374254747949999911e-01 3.216827199289999939e-01 4.429228825999999980e-02 -5.547799084900000288e-01 3.741633387999999949e-02 8.588773011500000498e-02 -5.910035183820000482e-01 5.116564324999999663e-02 1.334015536550000047e-01 5.694874834290000187e-01 -8.766646095000000388e-03 2.078714240829999949e-01 -3.267452430389999884e-01 -2.301097340130000002e-01 -4.620476885329999894e-01 -1.351369068890000136e-01 2.179949108819999870e-01 -1.867615771939999947e-01 -6.532499216210000403e-01 -1.557005749900000069e-01 -9.595104327700000602e-02 1.654150770230000123e-01 1.445242500249999951e-01 9.368391520200000655e-02 3.062721867679999987e-01 4.961804363319999855e-01 3.769266461000000262e-02 2.163866061299999852e-02 -1.134051515906000063e+00 -1.444068812200000052e-02 -3.382734945770000112e-01 -9.232645096880000013e-01 2.051183294400000037e-02 -1.554515343429999918e-01 3.056236227670000027e-01 2.668631174609999990e-01 4.602034485340000258e-01 -6.944154788809999701e-01 -8.988407764999999452e-03 4.368815983830000027e-01 -6.790183691129999533e-01 -9.166934102200000045e-02 -1.751909452600000083e-01 1.031880490163000097e+00 -1.414327572580000025e-01 -2.829134655209999960e-01 6.203323050090000512e-01 1.825465044419999905e-01 1.067173381999999941e-02 -5.485766121920000460e-01 7.512330595499999708e-01 4.256672072500000126e-01 1.540264932900000001e-02 -6.017131439839999985e-01 4.785987178999999946e-03 -3.539980188560000185e-01 1.869825966860000077e-01 1.735935137990000099e-01 -3.007228640119999907e-01 1.618638561930000053e-01 1.837081590299999984e-02 3.570070535539999756e-01 -5.648515794120000377e-01 1.077930076309999985e-01 1.452292658619999954e-01 8.644078195569999679e-01 -6.812364308099999599e-02 3.745268076830000070e-01 -4.727027593570000130e-01 2.775506553359999851e-01 2.570858900660000224e-01 -5.319499295490000002e-01
-1.983699796739999965e-01 2.263655405999999981e-01 -1.809012304679999961e-01 -8.772626933799999860e-02 2.732053137939999821e-01 -2.651793406610000181e-01 1.045710797973000039e+00 -1.747851525839999864e-01 4.471301110340000218e-01 -7.027295063599999780e-01 6.863988341329999576e-01 -1.372610699819999946e-01 -3.923769249690000072e-01 -4.718845955090000266e-01 1.237623089090000017e-01 3.213410728250000181e-01 2.150998895490000007e-01 -1.400872693540000102e-01 5.802289560760000020e-01 1.655351702179999884e-01 -2.215211777920000069e-01 -4.549883623450000081e-01 -5.319226735819999607e-01 2.140458067559999900e-01 -5.512903238900000030e-02 4.954000537470000243e-01 -4.718199105859999798e-01 -1.330656355000000013e-01 -4.587418639740000192e-01 -1.573019779829999965e-01 3.867865065769999777e-01 -9.045712942229999776e-01 -5.641184660729999800e-01 -5.010947385089999928e-01 4.069598604240000084e-01 1.773219022339999895e-01 3.982782082060000173e-01 2.013448222239999919e-01 5.243245224500000523e-01 -4.626368171670000029e-01 -8.229594132159999686e-01 8.842914223700000520e-02 8.817372016469999796e-01 2.007387796170000127e-01 8.504942996650000087e-01 -8.215229779099999519e-01 6.902152496929999659e-01 -4.835433194090000275e-01 -3.892419565379999780e-01 3.270965672669999824e-01 8.980912400999999448e-03 5.504790263200000089e-01 1.491799701650000087e-01 1.940727013509999932e-01 2.233773346300000143e-02 4.660435072710000237e-01 -5.772304660099999984e-02 -5.175802452500000150e-02 2.145949304670000113e-01 1.122487028089999977e-01 -7.671714616510000306e-01 -1.762397625200000026e-02 -6.135986614389999927e-01 -3.037575667499999854e-01 1.729642227319999892e-01 -4.545470825969999962e-01 -7.287620336060000037e-01 -4.377205096619999902e-01 6.991781938600000190e-02 1.047402542000000015e-03 4.203305195899999930e-02 1.060469947170000066e-01 2.390574392810000115e-01 -1.287934945479999871e-01 1.088993784600000014e-01 1.851593672699999860e-02 -5.343161408030000503e-01 -4.024537905719999809e-01 -3.103771895269999970e-01 -2.446654547419999937e-01 1.943142840160000107e-01 -3.828047754880000153e-01 -4.780224721399999877e-01 5.135130417709999895e-01 6.506674881570000402e-01 -1.098175966419999983e-01 3.415563760999999927e-03 4.220171167819999902e-01 -7.545864490050000484e-01 4.901658962620000226e-01 -3.156225157509999768e-01 1.030094326329999976e+00 -1.978951339259999997e-01 -3.874089373999999725e-02 9.425313243259999529e-01 -1.188228324789999957e-01 6.326247903300000197e-02 -8.259870301280000104e-01 -2.026717729299999937e-01 5.814454776699999883e-01 -2.196601817259999923e-01 8.892440552399999421e-02 4.956884458500000062e-02 -4.777870910320000108e-01 1.440566477150000135e-01 4.462295649949999943e-01 -1.154758795159999962e-01 -7.925848289110000167e-01 1.557180969289999883e-01 1.839646473980000030e-01 2.164531640229999943e-01 -6.082733985399999682e-02 6.509147616579999962e-01 8.592966859849999750e-01 3.407533147000000196e-03 2.283119876430000084e-01 4.955960650999999967e-02 3.408671186580000123e-01 -2.596715419350000276e-01 -1.233429862129999943e-01