1.135653495769171073e+00 -1.328868623301372905e-02 -6.931367840179256112e-02 -1.328868623301372905e-02 1.144146435215170676e+00 -1.285997280560945881e-03 -6.931367840179256112e-02 -1.285997280560945881e-03 9.334446851726663219e-01
2.273100833358691286e+00 -6.046161835397051432e-02 -4.134799808914068064e-01 -6.046161835397051432e-02 2.422738146676877591e+00 -1.365997820559572938e-02 -4.134799808914068064e-01 -1.365997820559572938e-02 1.936378812273693795e+00
2.049553951317309330e+00 -2.417457626654183345e-02 -5.339523021076748588e-01 -2.417457626654183345e-02 2.175642356146886947e+00 -6.695303114973090441e-02 -5.339523021076748588e-01 -6.695303114973090441e-02 1.389849686727704592e+00
1.081534330602834881e+00 4.260619635531887744e-02 -3.659182691852949088e-01 4.260619635531887744e-02 1.690162122986129223e+00 -1.134244329492372499e-01 -3.659182691852949088e-01 -1.134244329492372499e-01 -4.625549876405807281e-01
4.208897659065459762e-01 1.450187561710681028e-01 -1.021855916692454153e-01 1.450187561710681028e-01 1.326194549600186567e+00 -5.310579526252540150e-02 -1.021855916692454153e-01 -5.310579526252540150e-02 -1.448781312033993407e+00
-1.280646333602930009e-01 3.804251268845019185e-01 3.059380141275593219e-03 3.804251268845019185e-01 1.585499674548983329e+00 -3.949532262113630843e-02 3.059380141275593219e-03 -3.949532262113630843e-02 -2.691278103209545414e+00
-2.115130731760452854e+00 6.278361852259919385e-01 -1.015380866310951063e-01 6.278361852259919385e-01 -6.512355307407765581e-01 -2.851565708687871584e-02 -1.015380866310951063e-01 -2.851565708687871584e-02 -5.808707539994053981e+00
-3.512773445377228132e+00 8.286353881926720177e-01 -1.809675392824792450e-01 8.286353881926720177e-01 -2.261867208044304078e+00 2.028678293156964130e-01 -1.809675392824792450e-01 2.028678293156964130e-01 -8.030013290718665431e+00
-4.345176401576527070e+00 9.374271105858602571e-01 -5.478630328949619932e-02 9.374271105858602571e-01 -3.743502059226064826e+00 4.802207712137060436e-01 -5.478630328949619932e-02 4.802207712137060436e-01 -9.234056244872078878e+00
-4.677288559376528099e+00 9.328286817193321978e-01 -1.074141643680179281e-03 9.328286817193321978e-01 -3.027540825501670696e+00 3.172147870817024207e-01 -1.074141643680179281e-03 3.172147870817024207e-01 -9.037423630698235399e+00
-4.098008771556554741e+00 1.153421293139344161e+00 -1.023811587292617759e-01 1.153421293139344161e+00 8.284194200883494563e-01 5.060525770405166490e-02 -1.023811587292617759e-01 5.060525770405166490e-02 -8.290877103756333355e+00
-1.835332994473462209e+00 1.595090486052787027e+00 -4.979925020706702475e-03 1.595090486052787027e+00 5.738150746080974862e+00 1.198281190141921443e-01 -4.979925020706702475e-03 1.198281190141921443e-01 -6.256615484839258556e+00
1.373521793895776111e-01 1.605836031647988715e+00 2.948838474663160736e-01 1.605836031647988715e+00 8.692275951740052520e+00 2.152700846114074251e-01 2.948838474663160736e-01 2.152700846114074251e-01 -4.213405059758915883e+00
3.486430244952611446e+00 1.266114712919901741e+00 6.574722775070039882e-01 1.266114712919901741e+00 7.564535955173359305e+00 -1.186437889431127962e-01 6.574722775070039882e-01 -1.186437889431127962e-01 -1.957632987166900262e+00
4.579925041675571684e+00 8.912067324041793581e-01 5.890035696160467182e-01 8.912067324041793581e-01 7.511661312653340694e+00 -1.011671865138491944e+00 5.890035696160467182e-01 -1.011671865138491944e+00 1.683065230792005762e-01
4.520019781021703764e+00 9.447990875297599400e-01 2.068597722947622675e-01 9.447990875297599400e-01 9.128838426027002129e+00 -1.953501023047428786e+00 2.068597722947622675e-01 -1.953501023047428786e+00 2.052225407118259959e+00
3.822297174862710367e+00 1.083620565096365285e+00 2.250916005914440077e-01 1.083620565096365285e+00 9.478437641537718505e+00 -2.460389895574757624e+00 2.250916005914440077e-01 -2.460389895574757624e+00 2.736983703502110732e+00
3.378668693006851020e-01 9.505056579553684548e-01 6.820125333514478472e-01 9.505056579553684548e-01 4.527151880008284834e+00 -2.742178541011280668e+00 6.820125333514478472e-01 -2.742178541011280668e+00 1.079915849807760564e+00
-3.430582736069092586e+00 3.643305503003812507e-01 1.048524754271835890e+00 3.643305503003812507e-01 -1.240864886496739317e+00 -2.487141142706321695e+00 1.048524754271835890e+00 -2.487141142706321695e+00 -8.813886364186510614e-01
-5.604017737075096761e+00 -3.045455116440864418e-01 1.035597939508953402e+00 -3.045455116440864418e-01 -5.115723903157380015e+00 -1.941351229706779202e+00 1.035597939508953402e+00 -1.941351229706779202e+00 -4.563857938647927881e+00
-6.575827742843974200e+00 -8.384376234825116070e-01 1.023180932185090430e+00 -8.384376234825116070e-01 -7.662621412258277864e+00 -1.605000463461081051e+00 1.023180932185090430e+00 -1.605000463461081051e+00 -7.571149738852949618e+00
-7.615341649105933364e+00 -6.127462847615049446e-01 1.268499402094886319e+00 -6.127462847615049446e-01 -7.269132974368623934e+00 -1.311060881870487860e+00 1.268499402094886319e+00 -1.311060881870487860e+00 -8.116228524033852310e+00
-7.445313996429807624e+00 -2.767108264148470109e-01 1.521578974502460602e+00 -2.767108264148470109e-01 -6.756507481068863008e+00 -6.391604985897243463e-01 1.521578974502460602e+00 -6.391604985897243463e-01 -6.854526494783664603e+00
-4.834221425434342301e+00 -4.043563711548101708e-02 1.892302118646058684e+00 -4.043563711548101708e-02 -5.985876316883178561e+00 -2.977385207682842760e-01 1.892302118646058684e+00 -2.977385207682842760e-01 -5.417304161919942906e+00
-2.344724284950051363e+00 6.959902337462070543e-01 2.287292616047449823e+00 6.959902337462070543e-01 -5.071677688669473660e-01 3.666512765650973837e-01 2.287292616047449823e+00 3.666512765650973837e-01 -4.372388135771219986e+00
-2.062297096405610597e-01 4.093744834560669732e-01 1.655910177567039954e+00 4.093744834560669732e-01 7.182847843262557541e-01 1.268545130356812489e+00 1.655910177567039954e+00 1.268545130356812489e+00 -3.748622780868765769e+00
-8.745623278121427147e-01 4.170047038604753897e-01 8.059928651379484332e-01 4.170047038604753897e-01 -1.861930274314216760e+00 1.621356441797592973e+00 8.059928651379484332e-01 1.621356441797592973e+00 -9.308781361130720189e-01
-1.838501592574401267e+00 6.113973841980178126e-01 5.057896103141110711e-01 6.113973841980178126e-01 6.437613688413971191e-01 1.324427684114368731e+00 5.057896103141110711e-01 1.324427684114368731e+00 1.845379219653644931e+00
-1.611193212279035947e-01 7.145738764644152807e-01 8.158908487191639525e-01 7.145738764644152807e-01 5.454063394182327329e+00 1.180845631518236738e+00 8.158908487191639525e-01 1.180845631518236738e+00 4.996032861353536525e+00
-8.231000806825381488e-01 1.335497430882341074e+00 1.178370517221287939e+00 1.335497430882341074e+00 5.256347419151187417e+00 1.000676774780564271e+00 1.178370517221287939e+00 1.000676774780564271e+00 4.845433183758702356e+00
-2.076469459638688342e+00 1.311135757425374804e+00 5.953415896653879713e-01 1.311135757425374804e+00 3.705667553323884977e+00 2.641991080442945283e-01 5.953415896653879713e-01 2.641991080442945283e-01 3.404614282404311854e-01
-3.592244637574875110e+00 8.077345188625481009e-01 1.335289536108160979e-01 8.077345188625481009e-01 2.077412689934877488e+00 2.551513930486158377e-01 1.335289536108160979e-01 2.551513930486158377e-01 -1.458267781421806741e-01
-7.579717772713175705e+00 5.428794301419683777e-01 1.263905063294110120e-01 5.428794301419683777e-01 -3.627423517056387881e-01 5.424436982265224971e-01 1.263905063294110120e-01 5.424436982265224971e-01 -3.700593035329160063e+00
-8.055025951818102214e+00 2.388953719718741320e-01 -4.684959820725320134e-01 2.388953719718741320e-01 -2.864606820261017095e+00 7.124258126253645296e-01 -4.684959820725320134e-01 7.124258126253645296e-01 -6.538118783540837420e+00
-6.558018877569547378e+00 -2.190665232350711422e-01 -8.505995767254006523e-01 -2.190665232350711422e-01 -1.338693980894602342e+00 6.065338258493000456e-01 -8.505995767254006523e-01 6.065338258493000456e-01 -8.192407674098154402e+00
-5.774163743657720893e+00 2.228569893233145194e-01 -3.775665501072130725e-01 2.228569893233145194e-01 -9.580166421406767219e-01 7.002619823875837479e-01 -3.775665501072130725e-01 7.002619823875837479e-01 -9.145925580334699490e+00
-3.467577302128473704e+00 8.491965475551737086e-01 2.451208063519858538e-01 8.491965475551737086e-01 -1.822937729902529558e+00 3.434933078750416757e-01 2.451208063519858538e-01 3.434933078750416757e-01 -8.597517523504741632e+00
3.567526380163304339e-02 9.770541929347232868e-01 6.589649417664621422e-01 9.770541929347232868e-01 2.722942999045448342e+00 -2.001870726473602979e-01 6.589649417664621422e-01 -2.001870726473602979e-01 -4.983879447995370526e+00
2.965727343245905701e+00 1.033434307270951091e+00 7.005441308301580960e-01 1.033434307270951091e+00 6.022838162984237798e+00 -5.472872813506882705e-01 7.005441308301580960e-01 -5.472872813506882705e-01 -1.083915801813989832e+00
4.850504291228080689e+00 1.151878130172844905e+00 8.099969042868653268e-01 1.151878130172844905e+00 5.733996079433092419e+00 -9.300139783606629074e-01 8.099969042868653268e-01 -9.300139783606629074e-01 1.216978179111787073e+00
3.939314205674911751e+00 8.910441543737892545e-01 1.043102141876742106e+00 8.910441543737892545e-01 3.872037150338281997e+00 -6.993326487570603600e-01 1.043102141876742106e+00 -6.993326487570603600e-01 9.196234065166908334e-01
2.852145815925820393e+00 6.837478883516654449e-01 8.576157303235922846e-01 6.837478883516654449e-01 1.871792035881745253e+00 -1.099853264004417575e-01 8.576157303235922846e-01 -1.099853264004417575e-01 -1.098654768186607900e+00
1.793440989774173655e+00 4.784948052549825026e-01 7.493843302453623290e-01 4.784948052549825026e-01 1.394258763905338872e-01 2.041811740450924229e-01 7.493843302453623290e-01 2.041811740450924229e-01 -2.922493983372318915e+00
1.206188135665781092e+00 1.163752007071898603e-01 6.827493636721401193e-01 1.163752007071898603e-01 4.433947719117837249e-01 4.677807391316483598e-01 6.827493636721401193e-01 4.677807391316483598e-01 -3.346928697882018522e+00
-9.724827841572909748e-02 1.767613187062023750e-01 5.965130072553093132e-01 1.767613187062023750e-01 -5.249273941667371712e-01 6.589876315381800742e-01 5.965130072553093132e-01 6.589876315381800742e-01 -4.202245425455029881e+00
-6.760906606024261745e-01 3.946420424218249901e-01 7.435875705177691364e-01 3.946420424218249901e-01 -2.288533436945371591e+00 5.668130196956708833e-01 7.435875705177691364e-01 5.668130196956708833e-01 -5.178451626504388727e+00
-6.004623768893446734e-01 1.828379107611704524e-01 7.772970434054187194e-01 1.828379107611704524e-01 -2.807671944611898507e+00 3.687572011011149842e-01 7.772970434054187194e-01 3.687572011011149842e-01 -5.573587967049331127e+00
-1.455638894246477077e-01 2.349998506792942005e-02 7.462092454410312881e-01 2.349998506792942005e-02 -1.541063186069641766e+00 3.508704991796783856e-01 7.462092454410312881e-01 3.508704991796783856e-01 -4.265576114561667076e+00
-3.290779831570079250e-01 -1.307627105980396220e-01 6.893687137474486804e-01 -1.307627105980396220e-01 -3.780729150510654391e-01 3.425026561678789494e-01 6.893687137474486804e-01 3.425026561678789494e-01 -3.013965133258993845e+00
2.994591311434200986e-01 -5.789026596311529493e-01 4.786534805738872911e-01 -5.789026596311529493e-01 -1.165855676366586435e-01 1.542639328208343652e-01 4.786534805738872911e-01 1.542639328208343652e-01 -1.321737803059076510e+00
8.654435517846444936e-01 -9.584967442556305839e-01 3.802956602344070847e-01 -9.584967442556305839e-01 -3.413648286359307615e-01 1.137664657492694215e-01 3.802956602344070847e-01 1.137664657492694215e-01 -1.830202585510504631e+00
1.734217055309666300e+00 -1.083846043408417614e+00 4.542440691739238479e-01 -1.083846043408417614e+00 7.963104020291959795e-02 -2.740327164187077516e-02 4.542440691739238479e-01 -2.740327164187077516e-02 -2.579742756143189819e+00
2.877467775376768788e+00 -1.036531337556885646e+00 7.446329319972464500e-01 -1.036531337556885646e+00 9.960653572657672816e-01 -2.038694557949675690e-01 7.446329319972464500e-01 -2.038694557949675690e-01 -2.599835635770979980e+00
3.981454812801962451e+00 -8.974651478618017597e-01 1.230679943207779070e+00 -8.974651478618017597e-01 2.738945547499500588e+00 -5.419543858526723601e-02 1.230679943207779070e+00 -5.419543858526723601e-02 -1.645432611666436840e+00
4.150057643755502568e+00 -6.881944063811248347e-01 1.301072617458409519e+00 -6.881944063811248347e-01 3.184818919221914069e+00 2.111599140057472679e-01 1.301072617458409519e+00 2.111599140057472679e-01 -1.422224232416807732e+00
3.126153609553035118e+00 -6.421516509624655145e-01 1.030078837849432327e+00 -6.421516509624655145e-01 3.077126589736213891e+00 3.879285176044562355e-01 1.030078837849432327e+00 3.879285176044562355e-01 -2.102102392378787599e+00
1.777674940179220231e+00 -7.158848892107374517e-01 7.324764975230719788e-01 -7.158848892107374517e-01 2.046257600079066208e+00 5.894328490443837554e-01 7.324764975230719788e-01 5.894328490443837554e-01 -2.039583066628696706e+00
6.706532347430503860e-01 -6.463483955580293649e-01 2.927943106300602283e-01 -6.463483955580293649e-01 1.090567179853798363e+00 7.126390633046988388e-01 2.927943106300602283e-01 7.126390633046988388e-01 -1.673520864145614739e+00
-7.145569723349216584e-01 -4.823307476833616492e-01 3.526453821372337039e-02 -4.823307476833616492e-01 -1.074657680295966894e-01 7.747117335936143379e-01 3.526453821372337039e-02 7.747117335936143379e-01 -2.464757526075560090e+00
-1.895474228651233606e+00 -2.034320459390131786e-01 -2.072042760981119766e-02 -2.034320459390131786e-01 -7.983463194244087013e-01 8.045948348583628063e-01 -2.072042760981119766e-02 8.045948348583628063e-01 -2.332348934889318492e+00
-2.591426336934549379e+00 7.936621495914247815e-02 3.091260925165203316e-02 7.936621495914247815e-02 -6.335360480941609751e-01 8.676480778946648043e-01 3.091260925165203316e-02 8.676480778946648043e-01 -2.876712499338245355e+00
-3.176670721116392926e+00 2.946367453053074237e-01 2.694694094841403320e-01 2.946367453053074237e-01 -1.868853744177344955e+00 8.808395519589756750e-01 2.694694094841403320e-01 8.808395519589756750e-01 -4.606770357938811067e+00
-3.680936729577447775e+00 3.525663008080098249e-01 4.023478648459923868e-01 3.525663008080098249e-01 -3.258448434670025762e+00 6.263942313814995222e-01 4.023478648459923868e-01 6.263942313814995222e-01 -5.677656383075984081e+00
-2.134933493961708617e+00 2.146163726560314788e-01 3.205052210235674881e-01 2.146163726560314788e-01 -2.052067322642728175e+00 4.442366839262997802e-01 3.205052210235674881e-01 4.442366839262997802e-01 -5.557960810374801497e+00
1.592855902863279105e-01 -9.220903828618227938e-02 -9.966469800540882218e-03 -9.220903828618227938e-02 -1.530345602815824879e+00 4.853164777257803486e-01 -9.966469800540882218e-03 4.853164777257803486e-01 -3.591725693971146161e+00
2.163236064706007156e+00 -1.822827599994655545e-01 -5.693694735106867855e-01 -1.822827599994655545e-01 -6.082413585570579651e-01 7.504000284204562776e-01 -5.693694735106867855e-01 7.504000284204562776e-01 -2.276903015391313900e+00
3.727437562323844933e+00 -2.754860980804268999e-01 -4.767867439037021815e-01 -2.754860980804268999e-01 5.324719909614495927e-01 9.134203834998780858e-01 -4.767867439037021815e-01 9.134203834998780858e-01 -1.661776606179114490e-01
3.756241802393285756e+00 -2.643664743114583215e-01 1.784816082567264872e-01 -2.643664743114583215e-01 -3.590808436942481419e-01 5.984024102876603912e-01 1.784816082567264872e-01 5.984024102876603912e-01 2.617218560051127518e+00
2.814611289287236140e+00 2.352704205938785723e-02 2.550012357852952105e-01 2.352704205938785723e-02 3.683356979391478325e-01 -2.551097767113998452e-02 2.550012357852952105e-01 -2.551097767113998452e-02 1.466470642945688185e+00
2.430995995423266720e+00 -2.355500590981495224e-01 -1.460681186424558431e-03 -2.355500590981495224e-01 2.931845884355849918e+00 -5.408259288498311612e-01 -1.460681186424558431e-03 -5.408259288498311612e-01 8.448923190259933769e-01
2.650296214810554662e+00 -6.407097060883140127e-01 -3.537498726433555563e-01 -6.407097060883140127e-01 2.725511460306941469e+00 -5.190353463789227906e-01 -3.537498726433555563e-01 -5.190353463789227906e-01 1.674675021651002904e+00
2.918508394384152549e+00 1.065332205229122114e-01 -1.173666346387906428e-01 1.065332205229122114e-01 -1.527553193428845102e+00 -7.202697816055688707e-01 -1.173666346387906428e-01 -7.202697816055688707e-01 -3.064855038622259276e+00
-1.115496724408537643e+00 9.556302753774408298e-01 8.451811762422403174e-01 9.556302753774408298e-01 -5.826701222590414453e+00 -3.210617729295515144e-01 8.451811762422403174e-01 -3.210617729295515144e-01 -7.798717864297866953e+00
-4.031585026795678317e+00 1.285459998290300776e+00 1.956159440246907355e+00 1.285459998290300776e+00 -4.503470349067413281e+00 1.021663918018054451e+00 1.956159440246907355e+00 1.021663918018054451e+00 -9.588643994630418277e+00
-3.325835787908858254e+00 1.781972349340715356e+00 2.819936678894898741e+00 1.781972349340715356e+00 -2.436409346636355000e+00 1.744521426441362655e+00 2.819936678894898741e+00 1.744521426441362655e+00 -9.170446758677607946e+00
-1.790152025710514128e+00 1.713341374457230337e+00 2.869809791061610937e+00 1.713341374457230337e+00 -2.513271608997314388e+00 1.023816317841479639e+00 2.869809791061610937e+00 1.023816317841479639e+00 -7.311327177050418236e+00
8.537411546959222663e-01 1.692031676018022734e+00 2.722886707526364525e+00 1.692031676018022734e+00 -2.655838916313416398e+00 6.745537593400013909e-01 2.722886707526364525e+00 6.745537593400013909e-01 -7.165154758026842430e+00
-6.944733932720090208e-02 1.550153618370586184e+00 2.243947755286566093e+00 1.550153618370586184e+00 -4.705934226011907029e+00 5.929750849675406998e-01 2.243947755286566093e+00 5.929750849675406998e-01 -6.884217433741314451e+00
-3.745823777672479871e+00 4.582226556269786699e-01 1.132036585048780575e+00 4.582226556269786699e-01 -5.471819441079779800e+00 9.272352887342042438e-01 1.132036585048780575e+00 9.272352887342042438e-01 -5.439914441502884834e+00
-4.424287783457956813e+00 -3.216232076210783775e-01 4.346528257250957261e-01 -3.216232076210783775e-01 -4.064210258018046140e+00 1.092052654557295277e+00 4.346528257250957261e-01 1.092052654557295277e+00 -3.222675240377606443e+00
-1.963792428551677238e+00 -3.061669479424831142e-01 2.404535410054421118e-01 -3.061669479424831142e-01 -1.871600149853411610e+00 1.258416039656048646e+00 2.404535410054421118e-01 1.258416039656048646e+00 3.041147231662868489e-01
1.267294949888932099e+00 -1.987824480482008882e-01 -1.199346081442480144e-01 -1.987824480482008882e-01 7.606493625704293660e-01 1.595272476141277096e+00 -1.199346081442480144e-01 1.595272476141277096e+00 2.349237530279480790e+00
3.738084204668520094e+00 -2.871602918348850064e-01 -1.597198496103150456e-01 -2.871602918348850064e-01 3.910451490292273125e+00 1.742589954815950026e+00 -1.597198496103150456e-01 1.742589954815950026e+00 1.136114617906346602e+00
2.925694412904563890e+00 -7.460283828559656216e-01 -3.483705252223240900e-01 -7.460283828559656216e-01 4.645237907584132131e+00 1.244174568659438762e+00 -3.483705252223240900e-01 1.244174568659438762e+00 -9.991745475432416423e-01
1.597887297214367175e+00 -3.052369583484809690e-01 -8.476294281800818009e-01 -3.052369583484809690e-01 3.465146392498210215e+00 6.129546107192215820e-02 -8.476294281800818009e-01 6.129546107192215820e-02 -2.240912516992198178e+00
1.543011757824735763e+00 1.181341837633006486e+00 -1.067781465152959575e+00 1.181341837633006486e+00 1.526906424353484004e+00 -1.027351888740390073e+00 -1.067781465152959575e+00 -1.027351888740390073e+00 -3.260248732008278694e+00
1.301720237528862567e+00 2.299247463034872041e+00 -1.046336576180552758e+00 2.299247463034872041e+00 1.116893037339693029e+00 -1.373353657828650709e+00 -1.046336576180552758e+00 -1.373353657828650709e+00 -4.054291134541404773e+00
-3.440398014344385191e-01 2.315024616075207486e+00 -6.852491937781215459e-01 2.315024616075207486e+00 -1.829232841358471084e+00 -1.054028635500525501e+00 -6.852491937781215459e-01 -1.054028635500525501e+00 -5.717000607747765528e+00
-3.461133163768719712e+00 1.587424455522838729e+00 -7.320120626370297812e-01 1.587424455522838729e+00 -4.658554943382039681e+00 -6.377330377270508110e-01 -7.320120626370297812e-01 -6.377330377270508110e-01 -6.997443761788063377e+00
-3.371878270604243166e+00 1.080876230862106491e+00 -9.985732716106433537e-01 1.080876230862106491e+00 -5.545001421984657064e+00 -2.927504823716772231e-01 -9.985732716106433537e-01 -2.927504823716772231e-01 -6.292860092974842168e+00
-2.049498096302326822e+00 7.433836724360716186e-01 -8.572916078677398355e-01 7.433836724360716186e-01 -4.761972114480076179e+00 3.799923152108528653e-03 -8.572916078677398355e-01 3.799923152108528653e-03 -4.206321734404028234e+00
-3.859566139793197959e-01 6.637875835365125710e-01 -8.016985284410320656e-01 6.637875835365125710e-01 -2.385775478108108416e+00 2.816821842972637158e-01 -8.016985284410320656e-01 2.816821842972637158e-01 -3.391169881877762027e+00
1.998874478079690542e+00 4.565312549540594955e-01 -8.891562763007732073e-01 4.565312549540594955e-01 4.690250066190858047e-01 5.624981635014631998e-01 -8.891562763007732073e-01 5.624981635014631998e-01 -2.442588110646987332e+00
3.056169821333012848e+00 -6.368378021748830053e-02 -9.417720750839840838e-01 -6.368378021748830053e-02 3.060530082629986826e+00 6.148967144357125880e-01 -9.417720750839840838e-01 6.148967144357125880e-01 -7.808620693300261095e-01
3.902803939352712970e+00 -2.299745151523573949e-01 -8.081445791911593401e-01 -2.299745151523573949e-01 3.653723524473862394e+00 4.428043919956989871e-01 -8.081445791911593401e-01 4.428043919956989871e-01 -7.047471381693911630e-01
4.986344561944379805e+00 -1.988706229875647769e-01 -5.783001551011538455e-01 -1.988706229875647769e-01 3.151504250273731156e+00 2.119514569291084671e-01 -5.783001551011538455e-01 2.119514569291084671e-01 -1.749335805548748457e-01
5.859411509858502676e+00 -3.524638571179711244e-01 -5.290178310791994187e-01 -3.524638571179711244e-01 2.557832153965630795e+00 -1.930754748583229097e-01 -5.290178310791994187e-01 -1.930754748583229097e-01 -6.984810051190897262e-01
5.103126411320783262e+00 -3.698315439140882344e-01 -4.869273376101538875e-01 -3.698315439140882344e-01 1.650710990050723304e+00 -6.131180148756255610e-01 -4.869273376101538875e-01 -6.131180148756255610e-01 -1.990316716820895504e+00
2.568122316555268903e+00 -1.209030116677375227e-01 -3.566412229181673554e-01 -1.209030116677375227e-01 -5.114936320922386370e-03 -6.824569920672279855e-01 -3.566412229181673554e-01 -6.824569920672279855e-01 -3.501901555412703093e+00
1.457711871509955182e-01 5.725175392656829676e-02 -2.903171243287082093e-01 5.725175392656829676e-02 -1.811771289996821688e+00 -4.347219625683304556e-01 -2.903171243287082093e-01 -4.347219625683304556e-01 -4.423710699840241567e+00
-1.832013398166029150e+00 2.035238965428791680e-01 -7.102023498321735628e-02 2.035238965428791680e-01 -3.425312449123813163e+00 -1.894521482691047809e-01 -7.102023498321735628e-02 -1.894521482691047809e-01 -4.936039564226551768e+00
-2.716326724354204636e+00 2.054789032061712095e-01 9.620796751723692530e-02 2.054789032061712095e-01 -4.338917884271324965e+00 -2.655741463995639484e-02 9.620796751723692530e-02 -2.655741463995639484e-02 -5.765022695893377680e+00
-2.489019475746570009e+00 2.961003048389769521e-02 6.221481041098618492e-02 2.961003048389769521e-02 -3.811809458374557646e+00 -1.839512875950367540e-02 6.221481041098618492e-02 -1.839512875950367540e-02 -5.598070787019764794e+00
-1.374671330344424902e+00 -1.256773210912414396e-01 1.315273442522785496e-01 -1.256773210912414396e-01 -2.017174579035678761e+00 2.053804654517968689e-02 1.315273442522785496e-01 2.053804654517968689e-02 -4.752729371090375743e+00
1.149353795445873377e-01 -1.503231358932659856e-01 2.551650193549052648e-01 -1.503231358932659856e-01 3.072053602888175083e-01 2.136807099640850027e-01 2.551650193549052648e-01 2.136807099640850027e-01 -2.731300211744581929e+00
2.267336453761646275e+00 -6.169141420944326132e-02 4.669936491374181431e-01 -6.169141420944326132e-02 1.327392127602575522e+00 3.009434712578475946e-01 4.669936491374181431e-01 3.009434712578475946e-01 -7.830176167039268886e-01
4.053497696215984547e+00 -1.195536477201272485e-01 6.929011031907652551e-01 -1.195536477201272485e-01 2.300660793575666663e+00 4.288014598668353772e-01 6.929011031907652551e-01 4.288014598668353772e-01 3.618486490411098461e-02
5.309777879939522549e+00 -2.031848619526724353e-01 6.510709786742727712e-01 -2.031848619526724353e-01 3.586521292325620447e+00 6.605976860547122520e-01 6.510709786742727712e-01 6.605976860547122520e-01 -1.284297944556900273e-01
5.904636375821321614e+00 -1.579828057259946017e-01 5.283459690038978529e-01 -1.579828057259946017e-01 5.302856284771703343e+00 7.830921576728712141e-01 5.283459690038978529e-01 7.830921576728712141e-01 9.406555200017407622e-03
3.647516726791665498e+00 -8.738387492011293056e-02 3.593620663329871734e-01 -8.738387492011293056e-02 4.772611978336314564e+00 8.307158713032313235e-01 3.593620663329871734e-01 8.307158713032313235e-01 4.146958201164592794e-01
9.553833037603866041e-01 9.348250636863664198e-02 3.134797887418755424e-01 9.348250636863664198e-02 1.629179594984563328e+00 7.925122190837059488e-01 3.134797887418755424e-01 7.925122190837059488e-01 -1.076257824841206689e+00
-1.229290434872006843e+00 1.976953401668728461e-01 5.989295063407045205e-01 1.976953401668728461e-01 -1.018031163218884982e+00 7.558181313947976987e-01 5.989295063407045205e-01 7.558181313947976987e-01 -1.883020057557581950e+00
-2.110090210890874118e+00 1.163430933507229453e-01 8.449059219079229077e-01 1.163430933507229453e-01 -2.977730199070566020e+00 9.587347468467793954e-01 8.449059219079229077e-01 9.587347468467793954e-01 -2.631341842474821391e+00
-3.744290141848653164e+00 2.452885324403408784e-01 1.131392139964626287e+00 2.452885324403408784e-01 -4.361110328800334557e+00 1.187812173341108002e+00 1.131392139964626287e+00 1.187812173341108002e+00 -4.110208170599405797e+00
-5.441567427855022565e+00 3.831134255194298954e-01 1.285780047854931940e+00 3.831134255194298954e-01 -4.264436288433176792e+00 8.432540373543476742e-01 1.285780047854931940e+00 8.432540373543476742e-01 -4.942542333630640883e+00
-6.083523928195806896e+00 1.677853810961133230e-01 6.375364260718288101e-01 1.677853810961133230e-01 -5.158936686337612265e+00 3.729527432748645788e-02 6.375364260718288101e-01 3.729527432748645788e-02 -5.050535393456903499e+00
-4.431490671757114086e+00 6.532673555455088821e-02 3.207552697451802048e-01 6.532673555455088821e-02 -4.392326878000514689e+00 -5.318332098520599516e-01 3.207552697451802048e-01 -5.318332098520599516e-01 -3.215919605332239417e+00
-3.026089047624912265e+00 -4.833385748845431956e-02 4.499509895533116421e-01 -4.833385748845431956e-02 -3.447638856241609595e+00 -8.114631601127340055e-01 4.499509895533116421e-01 -8.114631601127340055e-01 -8.096838100691914342e-01
-9.500380871224718415e-01 -1.783114189249042081e-01 3.451234032800741258e-01 -1.783114189249042081e-01 -1.978534768267510069e+00 -5.479597880048301395e-01 3.451234032800741258e-01 -5.479597880048301395e-01 2.217961213109709728e+00
-1.233602892815307689e-01 -5.178810725450112562e-01 3.510127097999881651e-01 -5.178810725450112562e-01 2.024155311794150425e+00 -2.108558415480598497e-02 3.510127097999881651e-01 -2.108558415480598497e-02 3.905846495005621311e+00
1.851333638814306459e+00 -1.068249980933152710e+00 3.764395054588023926e-01 -1.068249980933152710e+00 5.317795520400708575e+00 -1.612752486792431439e-01 3.764395054588023926e-01 -1.612752486792431439e-01 4.341564067057967158e+00
4.457995687195775325e+00 -1.041561370624452199e+00 6.500852475258788177e-01 -1.041561370624452199e+00 1.040493140887198997e+01 -8.364422876061828882e-01 6.500852475258788177e-01 -8.364422876061828882e-01 4.128035875647838360e+00
7.845369015880342189e+00 -1.542846621687702924e-01 4.539793746019425980e-01 -1.542846621687702924e-01 1.134919125106406845e+01 -9.205913557195326558e-01 4.539793746019425980e-01 -9.205913557195326558e-01 4.019634210795824281e+00
2.568692260768259406e+00 5.343365002445654710e-01 -4.302372164426324086e-01 5.343365002445654710e-01 1.149218909903912511e+00 -1.098712458797692637e+00 -4.302372164426324086e-01 -1.098712458797692637e+00 -2.113500193466821830e+00
-4.328569351977465729e+00 7.349879584013713218e-01 -4.740428160905371668e-01 7.349879584013713218e-01 -4.832074128775610156e+00 -1.553407367315719156e+00 -4.740428160905371668e-01 -1.553407367315719156e+00 -7.224429838186306796e+00
-8.261104414561916798e+00 8.317477969633295665e-01 -3.133858688549718413e-02 8.317477969633295665e-01 -7.536795078633478084e+00 -1.125559148683933364e+00 -3.133858688549718413e-02 -1.125559148683933364e+00 -8.752986641984687566e+00
-8.969813855724645180e+00 7.097424114765326086e-01 -2.744847432065361525e-02 7.097424114765326086e-01 -7.749875427327557631e+00 -1.134169437683166110e-01 -2.744847432065361525e-02 -1.134169437683166110e-01 -1.053963585881195542e+01
-1.105664223406378710e+01 5.748201205483963738e-01 -6.925312195937349813e-02 5.748201205483963738e-01 -8.621000281728518289e+00 3.637667344693304439e-01 -6.925312195937349813e-02 3.637667344693304439e-01 -1.111716064825771610e+01
-1.101535855663394514e+01 3.902226100338421211e-02 1.243242829457381488e-01 3.902226100338421211e-02 -6.155334220592187044e+00 -2.293200517659869653e-01 1.243242829457381488e-01 -2.293200517659869653e-01 -8.329239652095223434e+00
-7.957562385800112992e+00 -6.472283045112711131e-01 1.013741668296491483e+00 -6.472283045112711131e-01 -2.078707877207006227e+00 -4.039194270492296179e-01 1.013741668296491483e+00 -4.039194270492296179e-01 -6.161405425488005072e+00